
     Program PWSCF v.6.0 (svn rev. 13079) starts on  9Jun2017 at 15:53:14 

     This program is part of the open-source Quantum ESPRESSO suite
     for quantum simulation of materials; please cite
         "P. Giannozzi et al., J. Phys.:Condens. Matter 21 395502 (2009);
          URL http://www.quantum-espresso.org", 
     in publications or presentations arising from this work. More details at
     http://www.quantum-espresso.org/quote

     Parallel version (MPI), running on     4 processors
     R & G space division:  proc/nbgrp/npool/nimage =       4
     Waiting for input...
     Reading input from standard input
Warning: card &IONS ignored
Warning: card ION_DYNAMICS='BFGS', ignored
Warning: card / ignored
Warning: card &CELL ignored
Warning: card CELL_DYNAMICS='BFGS', ignored
Warning: card PRESS = 0.0, ignored
Warning: card CELL_FACTOR = 2.0, ignored
Warning: card / ignored

     Current dimensions of program PWSCF are:
     Max number of different atomic species (ntypx) = 10
     Max number of k-points (npk) =  40000
     Max angular momentum in pseudopotentials (lmaxx) =  3
               file Al.pbe-nl-kjpaw_psl.1.0.0.UPF: wavefunction(s)  3S 3P renormalized
               file Al.pbe-nl-kjpaw_psl.1.0.0.UPF: wavefunction(s)  3S 3P renormalized
               file Al.pbe-nl-kjpaw_psl.1.0.0.UPF: wavefunction(s)  3S 3P renormalized
               file Al.pbe-nl-kjpaw_psl.1.0.0.UPF: wavefunction(s)  3S 3P renormalized

     Subspace diagonalization in iterative solution of the eigenvalue problem:
     a serial algorithm will be used


     Parallelization info
     --------------------
     sticks:   dense  smooth     PW     G-vecs:    dense   smooth      PW
     Min         232     164     49                 5310     3132     527
     Max         234     165     50                 5313     3135     528
     Sum         933     657    197                21247    12533    2109



     bravais-lattice index     =            0
     lattice parameter (alat)  =       7.6300  a.u.
     unit-cell volume          =     444.1949 (a.u.)^3
     number of atoms/cell      =            4
     number of atomic types    =            4
     number of electrons       =        12.00
     number of Kohn-Sham states=           10
     kinetic-energy cutoff     =      35.0000  Ry
     charge density cutoff     =     200.0000  Ry
     convergence threshold     =      1.0E-06
     mixing beta               =       0.3000
     number of iterations used =           10  local-TF  mixing
     Exchange-correlation      =  SLA  PW   PBX  PBC ( 1  4  3  4 0 0)

     celldm(1)=   7.630000  celldm(2)=   0.000000  celldm(3)=   0.000000
     celldm(4)=   0.000000  celldm(5)=   0.000000  celldm(6)=   0.000000

     crystal axes: (cart. coord. in units of alat)
               a(1) = (   1.000000   0.000000   0.000000 )  
               a(2) = (   0.000000   1.000000   0.000000 )  
               a(3) = (   0.000000   0.000000   1.000000 )  

     reciprocal axes: (cart. coord. in units 2 pi/alat)
               b(1) = (  1.000000  0.000000  0.000000 )  
               b(2) = (  0.000000  1.000000  0.000000 )  
               b(3) = (  0.000000  0.000000  1.000000 )  


     PseudoPot. # 1 for Al read from file:
     /home/ben/espresso/pp/Al.pbe-nl-kjpaw_psl.1.0.0.UPF
     MD5 check sum: 339dbea23cf3ab9a065ad45c0f9085d7
     Pseudo is Projector augmented-wave + core cor, Zval =  3.0
     Generated using "atomic" code by A. Dal Corso  v.5.1
     Shape of augmentation charge: PSQ
     Using radial grid of 1135 points,  4 beta functions with: 
                l(1) =   0
                l(2) =   0
                l(3) =   1
                l(4) =   1
     Q(r) pseudized with 0 coefficients 


     PseudoPot. # 2 for Al read from file:
     /home/ben/espresso/pp/Al.pbe-nl-kjpaw_psl.1.0.0.UPF
     MD5 check sum: 339dbea23cf3ab9a065ad45c0f9085d7
     Pseudo is Projector augmented-wave + core cor, Zval =  3.0
     Generated using "atomic" code by A. Dal Corso  v.5.1
     Shape of augmentation charge: PSQ
     Using radial grid of 1135 points,  4 beta functions with: 
                l(1) =   0
                l(2) =   0
                l(3) =   1
                l(4) =   1
     Q(r) pseudized with 0 coefficients 


     PseudoPot. # 3 for Al read from file:
     /home/ben/espresso/pp/Al.pbe-nl-kjpaw_psl.1.0.0.UPF
     MD5 check sum: 339dbea23cf3ab9a065ad45c0f9085d7
     Pseudo is Projector augmented-wave + core cor, Zval =  3.0
     Generated using "atomic" code by A. Dal Corso  v.5.1
     Shape of augmentation charge: PSQ
     Using radial grid of 1135 points,  4 beta functions with: 
                l(1) =   0
                l(2) =   0
                l(3) =   1
                l(4) =   1
     Q(r) pseudized with 0 coefficients 


     PseudoPot. # 4 for Al read from file:
     /home/ben/espresso/pp/Al.pbe-nl-kjpaw_psl.1.0.0.UPF
     MD5 check sum: 339dbea23cf3ab9a065ad45c0f9085d7
     Pseudo is Projector augmented-wave + core cor, Zval =  3.0
     Generated using "atomic" code by A. Dal Corso  v.5.1
     Shape of augmentation charge: PSQ
     Using radial grid of 1135 points,  4 beta functions with: 
                l(1) =   0
                l(2) =   0
                l(3) =   1
                l(4) =   1
     Q(r) pseudized with 0 coefficients 


     atomic species   valence    mass     pseudopotential
        Al1            3.00    26.98200     Al( 1.00)
        Al2            3.00    26.98200     Al( 1.00)
        Al3            3.00    26.98200     Al( 1.00)
        Al4            3.00    26.98200     Al( 1.00)

     No symmetry found



   Cartesian axes

     site n.     atom                  positions (alat units)
         1           Al1 tau(   1) = (   0.9980371   0.0005712   0.0040867  )
         2           Al2 tau(   2) = (   0.5047814   0.4885882   0.0042240  )
         3           Al3 tau(   3) = (   0.4944217   0.0018317   0.5177495  )
         4           Al4 tau(   4) = (   0.9987984   0.5131373   0.5110339  )

     number of k points=    63  Marzari-Vanderbilt smearing, width (Ry)=  0.0200
                       cart. coord. in units 2pi/alat
        k(    1) = (   0.1000000   0.1000000   0.1000000), wk =   0.0320000
        k(    2) = (   0.1000000   0.1000000   0.3000000), wk =   0.0320000
        k(    3) = (   0.1000000   0.1000000  -0.5000000), wk =   0.0320000
        k(    4) = (   0.1000000   0.3000000   0.3000000), wk =   0.0320000
        k(    5) = (   0.1000000   0.3000000  -0.5000000), wk =   0.0320000
        k(    6) = (   0.1000000  -0.5000000  -0.5000000), wk =   0.0320000
        k(    7) = (   0.3000000   0.3000000   0.3000000), wk =   0.0320000
        k(    8) = (   0.3000000   0.3000000  -0.5000000), wk =   0.0320000
        k(    9) = (   0.3000000  -0.5000000  -0.5000000), wk =   0.0320000
        k(   10) = (  -0.5000000  -0.5000000  -0.5000000), wk =   0.0160000
        k(   11) = (  -0.1000000  -0.1000000   0.1000000), wk =   0.0320000
        k(   12) = (  -0.1000000   0.1000000  -0.1000000), wk =   0.0320000
        k(   13) = (   0.1000000  -0.1000000  -0.1000000), wk =   0.0320000
        k(   14) = (  -0.1000000  -0.1000000   0.3000000), wk =   0.0320000
        k(   15) = (  -0.1000000   0.1000000  -0.3000000), wk =   0.0320000
        k(   16) = (   0.1000000  -0.1000000  -0.3000000), wk =   0.0320000
        k(   17) = (   0.3000000  -0.1000000   0.1000000), wk =   0.0320000
        k(   18) = (  -0.3000000  -0.1000000  -0.1000000), wk =   0.0320000
        k(   19) = (   0.3000000   0.1000000  -0.1000000), wk =   0.0320000
        k(   20) = (  -0.3000000   0.1000000   0.1000000), wk =   0.0320000
        k(   21) = (  -0.1000000   0.3000000   0.1000000), wk =   0.0320000
        k(   22) = (  -0.1000000  -0.3000000  -0.1000000), wk =   0.0320000
        k(   23) = (   0.1000000   0.3000000  -0.1000000), wk =   0.0320000
        k(   24) = (   0.1000000  -0.3000000   0.1000000), wk =   0.0320000
        k(   25) = (  -0.1000000   0.1000000   0.5000000), wk =   0.0320000
        k(   26) = (  -0.5000000  -0.1000000   0.1000000), wk =   0.0320000
        k(   27) = (   0.5000000  -0.1000000  -0.1000000), wk =   0.0320000
        k(   28) = (  -0.1000000  -0.5000000   0.1000000), wk =   0.0320000
        k(   29) = (  -0.1000000   0.5000000  -0.1000000), wk =   0.0320000
        k(   30) = (  -0.1000000  -0.3000000   0.3000000), wk =   0.0320000
        k(   31) = (  -0.1000000   0.3000000  -0.3000000), wk =   0.0320000
        k(   32) = (   0.1000000  -0.3000000  -0.3000000), wk =   0.0320000
        k(   33) = (   0.3000000   0.1000000  -0.3000000), wk =   0.0320000
        k(   34) = (  -0.3000000  -0.1000000  -0.3000000), wk =   0.0320000
        k(   35) = (   0.3000000  -0.1000000   0.3000000), wk =   0.0320000
        k(   36) = (  -0.3000000   0.1000000   0.3000000), wk =   0.0320000
        k(   37) = (   0.3000000  -0.3000000   0.1000000), wk =   0.0320000
        k(   38) = (  -0.3000000  -0.3000000  -0.1000000), wk =   0.0320000
        k(   39) = (   0.3000000   0.3000000  -0.1000000), wk =   0.0320000
        k(   40) = (  -0.3000000   0.3000000   0.1000000), wk =   0.0320000
        k(   41) = (  -0.1000000   0.3000000   0.5000000), wk =   0.0320000
        k(   42) = (   0.3000000   0.1000000   0.5000000), wk =   0.0320000
        k(   43) = (   0.3000000  -0.1000000  -0.5000000), wk =   0.0320000
        k(   44) = (  -0.5000000  -0.3000000   0.1000000), wk =   0.0320000
        k(   45) = (   0.5000000  -0.3000000  -0.1000000), wk =   0.0320000
        k(   46) = (  -0.1000000  -0.5000000   0.3000000), wk =   0.0320000
        k(   47) = (  -0.1000000   0.5000000  -0.3000000), wk =   0.0320000
        k(   48) = (   0.3000000  -0.5000000   0.1000000), wk =   0.0320000
        k(   49) = (   0.3000000   0.5000000  -0.1000000), wk =   0.0320000
        k(   50) = (  -0.5000000   0.1000000   0.3000000), wk =   0.0320000
        k(   51) = (   0.5000000  -0.1000000   0.3000000), wk =   0.0320000
        k(   52) = (  -0.5000000   0.1000000   0.5000000), wk =   0.0320000
        k(   53) = (  -0.5000000   0.5000000   0.1000000), wk =   0.0320000
        k(   54) = (  -0.3000000  -0.3000000   0.3000000), wk =   0.0320000
        k(   55) = (  -0.3000000   0.3000000  -0.3000000), wk =   0.0320000
        k(   56) = (   0.3000000  -0.3000000  -0.3000000), wk =   0.0320000
        k(   57) = (  -0.3000000   0.3000000   0.5000000), wk =   0.0320000
        k(   58) = (  -0.5000000  -0.3000000   0.3000000), wk =   0.0320000
        k(   59) = (   0.5000000  -0.3000000  -0.3000000), wk =   0.0320000
        k(   60) = (  -0.3000000  -0.5000000   0.3000000), wk =   0.0320000
        k(   61) = (  -0.3000000   0.5000000  -0.3000000), wk =   0.0320000
        k(   62) = (  -0.5000000   0.3000000   0.5000000), wk =   0.0320000
        k(   63) = (  -0.5000000   0.5000000   0.3000000), wk =   0.0320000

     Dense  grid:    21247 G-vectors     FFT dimensions: (  36,  36,  36)

     Smooth grid:    12533 G-vectors     FFT dimensions: (  30,  30,  30)

     Estimated max dynamical RAM per process >       9.70Mb

     Estimated total allocated dynamical RAM >      38.81Mb

     Initial potential from superposition of free atoms

     starting charge   11.99084, renormalised to   12.00000
     Starting wfc are   16 randomized atomic wfcs
     Checking if some PAW data can be deallocated... 

     total cpu time spent up to now is        2.5 secs

     per-process dynamical memory:    16.8 Mb

     Self-consistent Calculation

     iteration #  1     ecut=    35.00 Ry     beta=0.30
     Davidson diagonalization with overlap
     ethr =  1.00E-02,  avg # of iterations =  3.1

     Threshold (ethr) on eigenvalues was too large:
     Diagonalizing with lowered threshold

     Davidson diagonalization with overlap
     ethr =  2.01E-04,  avg # of iterations =  4.0

     total cpu time spent up to now is       11.6 secs

     total energy              =    -158.00245646 Ry
     Harris-Foulkes estimate   =    -158.00499734 Ry
     estimated scf accuracy    <       0.02367551 Ry

     iteration #  2     ecut=    35.00 Ry     beta=0.30
     Davidson diagonalization with overlap
     ethr =  1.97E-04,  avg # of iterations =  1.2

     total cpu time spent up to now is       16.0 secs

     total energy              =    -157.99782253 Ry
     Harris-Foulkes estimate   =    -158.00261661 Ry
     estimated scf accuracy    <       0.01468242 Ry

     iteration #  3     ecut=    35.00 Ry     beta=0.30
     Davidson diagonalization with overlap
     ethr =  1.22E-04,  avg # of iterations =  1.4

     total cpu time spent up to now is       18.2 secs

     total energy              =    -157.99822393 Ry
     Harris-Foulkes estimate   =    -157.99827548 Ry
     estimated scf accuracy    <       0.00003332 Ry

     iteration #  4     ecut=    35.00 Ry     beta=0.30
     Davidson diagonalization with overlap
     c_bands:  2 eigenvalues not converged
     ethr =  2.78E-07,  avg # of iterations =  7.5

     total cpu time spent up to now is       21.0 secs

     total energy              =    -157.99831944 Ry
     Harris-Foulkes estimate   =    -157.99832525 Ry
     estimated scf accuracy    <       0.00004095 Ry

     iteration #  5     ecut=    35.00 Ry     beta=0.30
     Davidson diagonalization with overlap
     ethr =  2.78E-07,  avg # of iterations =  1.2

     total cpu time spent up to now is       22.5 secs

     total energy              =    -157.99827843 Ry
     Harris-Foulkes estimate   =    -157.99831956 Ry
     estimated scf accuracy    <       0.00003308 Ry

     iteration #  6     ecut=    35.00 Ry     beta=0.30
     Davidson diagonalization with overlap
     ethr =  2.76E-07,  avg # of iterations =  2.2

     total cpu time spent up to now is       24.1 secs

     total energy              =    -157.99828737 Ry
     Harris-Foulkes estimate   =    -157.99828791 Ry
     estimated scf accuracy    <       0.00000214 Ry

     iteration #  7     ecut=    35.00 Ry     beta=0.30
     Davidson diagonalization with overlap
     ethr =  1.78E-08,  avg # of iterations =  1.3

     total cpu time spent up to now is       25.5 secs

     End of self-consistent calculation

          k = 0.1000 0.1000 0.1000 (  1542 PWs)   bands (ev):

    -2.9568   3.9858   4.0604   4.1288   7.6806   7.7642   7.8416  10.7007
    10.7840  10.8808

          k = 0.1000 0.1000 0.3000 (  1532 PWs)   bands (ev):

    -2.2347   1.3306   4.6877   4.7904   7.9566   8.1385   8.5544   8.5743
    11.3752  11.7809

          k = 0.1000 0.1000-0.5000 (  1556 PWs)   bands (ev):

    -0.9013  -0.6904   5.9001   5.9725   6.2430   6.3161   9.5043   9.5293
    10.2071  10.2319

          k = 0.1000 0.3000 0.3000 (  1565 PWs)   bands (ev):

    -1.5151   1.9830   2.0759   5.3233   5.5960   8.7529   8.8813   9.1725
    12.0907  12.1783

          k = 0.1000 0.3000-0.5000 (  1560 PWs)   bands (ev):

    -0.1890   0.0221   3.3146   3.5291   6.6850   6.9140  10.0429  10.2799
    10.4205  10.6160

          k = 0.1000-0.5000-0.5000 (  1548 PWs)   bands (ev):

     1.2042   1.2345   1.4362   1.4509   8.0074   8.0462   8.2694   8.2890
    11.7388  11.7634

          k = 0.3000 0.3000 0.3000 (  1556 PWs)   bands (ev):

    -0.7989   2.6493   2.7290   2.8019   6.1061   6.1863   6.2702   9.5751
    13.0107  13.0979

          k = 0.3000 0.3000-0.5000 (  1546 PWs)   bands (ev):

     0.5200   0.7315   3.9157   3.9856   4.2618   4.3307   7.4379   7.6633
    14.1356  14.1909

          k = 0.3000-0.5000-0.5000 (  1564 PWs)   bands (ev):

     1.9059   1.9361   2.1382   2.1526   5.3767   5.4087   5.6170   5.6321
    15.5199  15.5542

          k =-0.5000-0.5000-0.5000 (  1568 PWs)   bands (ev):

     3.2258   3.2528   3.2931   3.3149   3.5585   3.5798   3.6129   3.6452
    19.1257  19.1790

          k =-0.1000-0.1000 0.1000 (  1542 PWs)   bands (ev):

    -2.9568   4.0002   4.0602   4.1134   7.6980   7.7651   7.8254  10.7195
    10.7829  10.8619

          k =-0.1000 0.1000-0.1000 (  1542 PWs)   bands (ev):

    -2.9568   4.0148   4.0596   4.0985   7.7155   7.7645   7.8096  10.7348
    10.7883  10.8401

          k = 0.1000-0.1000-0.1000 (  1542 PWs)   bands (ev):

    -2.9568   4.0082   4.0579   4.1076   7.7057   7.7637   7.8176  10.7272
    10.7853  10.8524

          k =-0.1000-0.1000 0.3000 (  1532 PWs)   bands (ev):

    -2.2348   1.3308   4.6870   4.7898   7.9612   8.1442   8.5499   8.5704
    11.3735  11.8109

          k =-0.1000 0.1000-0.3000 (  1532 PWs)   bands (ev):

    -2.2348   1.3307   4.7143   4.7614   8.0097   8.0933   8.5568   8.5658
    11.3740  11.8026

          k = 0.1000-0.1000-0.3000 (  1532 PWs)   bands (ev):

    -2.2348   1.3307   4.7149   4.7620   8.0012   8.0837   8.5656   8.5745
    11.3719  11.7911

          k = 0.3000-0.1000 0.1000 (  1532 PWs)   bands (ev):

    -2.2335   1.3254   4.7179   4.7658   8.0046   8.0894   8.5587   8.5684
    11.3839  11.7765

          k =-0.3000-0.1000-0.1000 (  1532 PWs)   bands (ev):

    -2.2335   1.3250   4.6992   4.7866   7.9695   8.1251   8.5534   8.5705
    11.3734  11.7459

          k = 0.3000 0.1000-0.1000 (  1532 PWs)   bands (ev):

    -2.2335   1.3252   4.7183   4.7662   8.0040   8.0888   8.5581   8.5676
    11.3861  11.7878

          k =-0.3000 0.1000 0.1000 (  1532 PWs)   bands (ev):

    -2.2335   1.3255   4.6986   4.7861   7.9697   8.1251   8.5536   8.5713
    11.3681  11.7967

          k =-0.1000 0.3000 0.1000 (  1532 PWs)   bands (ev):

    -2.2335   1.3251   4.7353   4.7496   8.0344   8.0585   8.5588   8.5656
    11.3775  11.7313

          k =-0.1000-0.3000-0.1000 (  1532 PWs)   bands (ev):

    -2.2335   1.3247   4.7174   4.7686   8.0015   8.0927   8.5556   8.5659
    11.3861  11.7147

          k = 0.1000 0.3000-0.1000 (  1532 PWs)   bands (ev):

    -2.2335   1.3249   4.7355   4.7492   8.0363   8.0605   8.5603   8.5632
    11.3809  11.6866

          k = 0.1000-0.3000 0.1000 (  1532 PWs)   bands (ev):

    -2.2335   1.3252   4.7164   4.7676   8.0048   8.0961   8.5553   8.5656
    11.3821  11.6982

          k =-0.1000 0.1000 0.5000 (  1556 PWs)   bands (ev):

    -0.9013  -0.6904   5.9215   5.9557   6.2592   6.2931   9.5144   9.5267
    10.2105  10.2226

          k =-0.5000-0.1000 0.1000 (  1556 PWs)   bands (ev):

    -0.8101  -0.7857   5.9774   5.9823   6.2314   6.2390   9.5300   9.5321
    10.2009  10.2059

          k = 0.5000-0.1000-0.1000 (  1556 PWs)   bands (ev):

    -0.8101  -0.7857   5.9722   5.9813   6.2341   6.2440   9.5296   9.5311
    10.1995  10.2018

          k =-0.1000-0.5000 0.1000 (  1556 PWs)   bands (ev):

    -0.8038  -0.7923   5.9794   5.9893   6.2261   6.2359   9.5243   9.5369
    10.1982  10.2075

          k =-0.1000 0.5000-0.1000 (  1556 PWs)   bands (ev):

    -0.8038  -0.7923   5.9764   5.9870   6.2293   6.2386   9.5224   9.5353
    10.2010  10.2094

          k =-0.1000-0.3000 0.3000 (  1565 PWs)   bands (ev):

    -1.5152   2.0036   2.0548   5.3247   5.5961   8.7790   8.8486   9.1780
    12.1417  12.1776

          k =-0.1000 0.3000-0.3000 (  1565 PWs)   bands (ev):

    -1.5152   2.0037   2.0548   5.3236   5.5966   8.7808   8.8514   9.1731
    12.1507  12.1728

          k = 0.1000-0.3000-0.3000 (  1565 PWs)   bands (ev):

    -1.5151   1.9832   2.0761   5.3225   5.5965   8.7493   8.8771   9.1803
    12.0987  12.1623

          k = 0.3000 0.1000-0.3000 (  1565 PWs)   bands (ev):

    -1.5151   2.0213   2.0371   5.3231   5.5968   8.7971   8.8239   9.1862
    12.1331  12.2029

          k =-0.3000-0.1000-0.3000 (  1565 PWs)   bands (ev):

    -1.5150   2.0018   2.0564   5.3252   5.5958   8.7654   8.8419   9.2000
    12.1283  12.1656

          k = 0.3000-0.1000 0.3000 (  1565 PWs)   bands (ev):

    -1.5151   2.0020   2.0566   5.3224   5.5974   8.7712   8.8473   9.1890
    12.1377  12.1687

          k =-0.3000 0.1000 0.3000 (  1565 PWs)   bands (ev):

    -1.5152   2.0214   2.0371   5.3240   5.5962   8.7869   8.8180   9.2024
    12.1276  12.1964

          k = 0.3000-0.3000 0.1000 (  1565 PWs)   bands (ev):

    -1.5140   2.0023   2.0524   5.3241   5.5961   8.7849   8.8534   9.1762
    12.1351  12.1734

          k =-0.3000-0.3000-0.1000 (  1565 PWs)   bands (ev):

    -1.5138   1.9729   2.0821   5.3256   5.5950   8.7436   8.8940   9.1742
    12.0924  12.1727

          k = 0.3000 0.3000-0.1000 (  1565 PWs)   bands (ev):

    -1.5138   1.9730   2.0822   5.3239   5.5961   8.7439   8.8944   9.1760
    12.0928  12.1672

          k =-0.3000 0.3000 0.1000 (  1565 PWs)   bands (ev):

    -1.5140   2.0023   2.0523   5.3260   5.5948   8.7838   8.8525   9.1730
    12.1358  12.1858

          k =-0.1000 0.3000 0.5000 (  1560 PWs)   bands (ev):

    -0.1891   0.0221   3.3149   3.5294   6.6842   6.9131  10.0416  10.2761
    10.4259  10.6182

          k = 0.3000 0.1000 0.5000 (  1560 PWs)   bands (ev):

    -0.1889   0.0223   3.3141   3.5288   6.6855   6.9142  10.0354  10.2748
    10.4253  10.6237

          k = 0.3000-0.1000-0.5000 (  1560 PWs)   bands (ev):

    -0.1889   0.0222   3.3145   3.5291   6.6846   6.9133  10.0343  10.2728
    10.4281  10.6264

          k =-0.5000-0.3000 0.1000 (  1560 PWs)   bands (ev):

    -0.0978  -0.0734   3.4077   3.4326   6.7872   6.8138  10.1548  10.1834
    10.5033  10.5261

          k = 0.5000-0.3000-0.1000 (  1560 PWs)   bands (ev):

    -0.0978  -0.0734   3.4076   3.4325   6.7882   6.8149  10.1367  10.1660
    10.5165  10.5457

          k =-0.1000-0.5000 0.3000 (  1560 PWs)   bands (ev):

    -0.0929  -0.0809   3.4206   3.4308   6.7873   6.8018  10.1564  10.1699
    10.5131  10.5226

          k =-0.1000 0.5000-0.3000 (  1560 PWs)   bands (ev):

    -0.0929  -0.0809   3.4204   3.4307   6.7874   6.8019  10.1631  10.1735
    10.5058  10.5200

          k = 0.3000-0.5000 0.1000 (  1560 PWs)   bands (ev):

    -0.0914  -0.0799   3.4140   3.4264   6.7952   6.8065  10.1521  10.1748
    10.5135  10.5259

          k = 0.3000 0.5000-0.1000 (  1560 PWs)   bands (ev):

    -0.0914  -0.0799   3.4142   3.4266   6.7951   6.8063  10.1436  10.1718
    10.5151  10.5362

          k =-0.5000 0.1000 0.3000 (  1560 PWs)   bands (ev):

    -0.0989  -0.0745   3.4124   3.4375   6.7826   6.8091  10.1334  10.1624
    10.5192  10.5443

          k = 0.5000-0.1000 0.3000 (  1560 PWs)   bands (ev):

    -0.0989  -0.0745   3.4126   3.4376   6.7815   6.8080  10.1478  10.1780
    10.5077  10.5304

          k =-0.5000 0.1000 0.5000 (  1548 PWs)   bands (ev):

     1.2088   1.2388   1.4219   1.4556   8.0155   8.0515   8.2514   8.2915
    11.7418  11.7673

          k =-0.5000 0.5000 0.1000 (  1548 PWs)   bands (ev):

     1.2731   1.3009   1.3549   1.3887   8.0819   8.1189   8.1883   8.2314
    11.8225  11.8372

          k =-0.3000-0.3000 0.3000 (  1556 PWs)   bands (ev):

    -0.7990   2.6643   2.7300   2.7850   6.1250   6.1834   6.2548   9.5768
    13.0278  13.0993

          k =-0.3000 0.3000-0.3000 (  1556 PWs)   bands (ev):

    -0.7992   2.6808   2.7279   2.7701   6.1391   6.1890   6.2352   9.5775
    13.0464  13.0989

          k = 0.3000-0.3000-0.3000 (  1556 PWs)   bands (ev):

    -0.7992   2.6736   2.7264   2.7796   6.1304   6.1875   6.2444   9.5745
    13.0391  13.0980

          k =-0.3000 0.3000 0.5000 (  1546 PWs)   bands (ev):

     0.5198   0.7313   3.9379   3.9710   4.2760   4.3081   7.4383   7.6636
    14.1557  14.1836

          k =-0.5000-0.3000 0.3000 (  1546 PWs)   bands (ev):

     0.6100   0.6344   3.9893   3.9939   4.2510   4.2580   7.5419   7.5685
    14.1855  14.1900

          k = 0.5000-0.3000-0.3000 (  1546 PWs)   bands (ev):

     0.6101   0.6345   3.9829   3.9914   4.2550   4.2643   7.5403   7.5668
    14.1859  14.1889

          k =-0.3000-0.5000 0.3000 (  1546 PWs)   bands (ev):

     0.6161   0.6280   3.9905   3.9998   4.2469   4.2557   7.5489   7.5604
    14.1816  14.1984

          k =-0.3000 0.5000-0.3000 (  1546 PWs)   bands (ev):

     0.6161   0.6281   3.9874   3.9973   4.2498   4.2583   7.5492   7.5608
    14.1778  14.1948

          k =-0.5000 0.3000 0.5000 (  1564 PWs)   bands (ev):

     1.9103   1.9403   2.1238   2.1574   5.3822   5.4134   5.6022   5.6373
    15.5269  15.5579

          k =-0.5000 0.5000 0.3000 (  1564 PWs)   bands (ev):

     1.9740   2.0014   2.0552   2.0889   5.4535   5.4824   5.5382   5.5735
    15.6011  15.6253

     the Fermi energy is     8.0637 ev

!    total energy              =    -157.99828687 Ry
     Harris-Foulkes estimate   =    -157.99828751 Ry
     estimated scf accuracy    <       0.00000089 Ry

     total all-electron energy =     -1942.569415 Ry

     The total energy is the sum of the following terms:

     one-electron contribution =      12.67917719 Ry
     hartree contribution      =       0.02803845 Ry
     xc contribution           =     -10.36961592 Ry
     ewald contribution        =     -21.62448228 Ry
     one-center paw contrib.   =    -138.70992331 Ry
     smearing contrib. (-TS)   =      -0.00148100 Ry

     convergence has been achieved in   7 iterations

     Forces acting on atoms (Ry/au):

     atom    1 type  1   force =     0.00095711    0.00005611    0.00709869
     atom    2 type  2   force =    -0.00302096    0.00553660    0.00707000
     atom    3 type  3   force =     0.00136960   -0.00062131   -0.00851964
     atom    4 type  4   force =     0.00069425   -0.00497139   -0.00564905

     Total force =     0.016524     Total SCF correction =     0.000605


     entering subroutine stress ...

          total   stress  (Ry/bohr**3)                   (kbar)     P=    2.61
   0.00001602  -0.00000313  -0.00000475          2.36     -0.46     -0.70
  -0.00000313   0.00003197   0.00001172         -0.46      4.70      1.72
  -0.00000475   0.00001172   0.00000519         -0.70      1.72      0.76


     Writing output data file template.save

     init_run     :      1.34s CPU      1.36s WALL (       1 calls)
     electrons    :     22.33s CPU     23.03s WALL (       1 calls)
     forces       :      0.16s CPU      0.16s WALL (       1 calls)
     stress       :      0.46s CPU      0.47s WALL (       1 calls)

     Called by init_run:
     wfcinit      :      0.81s CPU      0.81s WALL (       1 calls)
     potinit      :      0.12s CPU      0.12s WALL (       1 calls)

     Called by electrons:
     c_bands      :     17.56s CPU     18.12s WALL (       8 calls)
     sum_band     :      3.66s CPU      3.77s WALL (       8 calls)
     v_of_rho     :      0.14s CPU      0.14s WALL (       8 calls)
     newd         :      0.16s CPU      0.16s WALL (       8 calls)
     PAW_pot      :      0.81s CPU      0.82s WALL (       8 calls)
     mix_rho      :      0.09s CPU      0.09s WALL (       8 calls)

     Called by c_bands:
     init_us_2    :      0.39s CPU      0.44s WALL (    1197 calls)
     cegterg      :     17.05s CPU     17.60s WALL (     504 calls)

     Called by sum_band:
     sum_band:bec :      0.01s CPU      0.01s WALL (     504 calls)
     addusdens    :      0.22s CPU      0.24s WALL (       8 calls)

     Called by *egterg:
     h_psi        :     15.72s CPU     16.12s WALL (    1949 calls)
     s_psi        :      0.29s CPU      0.30s WALL (    1949 calls)
     g_psi        :      0.04s CPU      0.04s WALL (    1382 calls)
     cdiaghg      :      0.61s CPU      0.64s WALL (    1823 calls)

     Called by h_psi:
     h_psi:pot    :     15.68s CPU     16.08s WALL (    1949 calls)
     h_psi:calbec :      0.45s CPU      0.44s WALL (    1949 calls)
     vloc_psi     :     14.91s CPU     15.29s WALL (    1949 calls)
     add_vuspsi   :      0.30s CPU      0.34s WALL (    1949 calls)

     General routines
     calbec       :      0.68s CPU      0.64s WALL (    2768 calls)
     fft          :      0.15s CPU      0.15s WALL (     153 calls)
     ffts         :      0.06s CPU      0.06s WALL (      96 calls)
     fftw         :     17.14s CPU     17.56s WALL (   33750 calls)
     interpolate  :      0.02s CPU      0.03s WALL (      16 calls)
     davcio       :      0.01s CPU      0.00s WALL (      63 calls)

     Parallel routines
     fft_scatter  :      3.39s CPU      3.38s WALL (   33999 calls)

     PWSCF        :    25.51s CPU        26.34s WALL


   This run was terminated on:  15:53:40   9Jun2017            

=------------------------------------------------------------------------------=
   JOB DONE.
=------------------------------------------------------------------------------=
