
     Program PWSCF v.6.0 (svn rev. 13079) starts on  9Jun2017 at 15:52:21 

     This program is part of the open-source Quantum ESPRESSO suite
     for quantum simulation of materials; please cite
         "P. Giannozzi et al., J. Phys.:Condens. Matter 21 395502 (2009);
          URL http://www.quantum-espresso.org", 
     in publications or presentations arising from this work. More details at
     http://www.quantum-espresso.org/quote

     Parallel version (MPI), running on     4 processors
     R & G space division:  proc/nbgrp/npool/nimage =       4
     Waiting for input...
     Reading input from standard input
Warning: card &IONS ignored
Warning: card ION_DYNAMICS='BFGS', ignored
Warning: card / ignored
Warning: card &CELL ignored
Warning: card CELL_DYNAMICS='BFGS', ignored
Warning: card PRESS = 0.0, ignored
Warning: card CELL_FACTOR = 2.0, ignored
Warning: card / ignored

     Current dimensions of program PWSCF are:
     Max number of different atomic species (ntypx) = 10
     Max number of k-points (npk) =  40000
     Max angular momentum in pseudopotentials (lmaxx) =  3
               file Al.pbe-nl-kjpaw_psl.1.0.0.UPF: wavefunction(s)  3S 3P renormalized
               file Al.pbe-nl-kjpaw_psl.1.0.0.UPF: wavefunction(s)  3S 3P renormalized
               file Al.pbe-nl-kjpaw_psl.1.0.0.UPF: wavefunction(s)  3S 3P renormalized
               file Al.pbe-nl-kjpaw_psl.1.0.0.UPF: wavefunction(s)  3S 3P renormalized

     Subspace diagonalization in iterative solution of the eigenvalue problem:
     a serial algorithm will be used


     Parallelization info
     --------------------
     sticks:   dense  smooth     PW     G-vecs:    dense   smooth      PW
     Min         232     164     49                 5310     3132     527
     Max         234     165     50                 5313     3135     528
     Sum         933     657    197                21247    12533    2109



     bravais-lattice index     =            0
     lattice parameter (alat)  =       7.6300  a.u.
     unit-cell volume          =     444.1949 (a.u.)^3
     number of atoms/cell      =            4
     number of atomic types    =            4
     number of electrons       =        12.00
     number of Kohn-Sham states=           10
     kinetic-energy cutoff     =      35.0000  Ry
     charge density cutoff     =     200.0000  Ry
     convergence threshold     =      1.0E-06
     mixing beta               =       0.3000
     number of iterations used =           10  local-TF  mixing
     Exchange-correlation      =  SLA  PW   PBX  PBC ( 1  4  3  4 0 0)

     celldm(1)=   7.630000  celldm(2)=   0.000000  celldm(3)=   0.000000
     celldm(4)=   0.000000  celldm(5)=   0.000000  celldm(6)=   0.000000

     crystal axes: (cart. coord. in units of alat)
               a(1) = (   1.000000   0.000000   0.000000 )  
               a(2) = (   0.000000   1.000000   0.000000 )  
               a(3) = (   0.000000   0.000000   1.000000 )  

     reciprocal axes: (cart. coord. in units 2 pi/alat)
               b(1) = (  1.000000  0.000000  0.000000 )  
               b(2) = (  0.000000  1.000000  0.000000 )  
               b(3) = (  0.000000  0.000000  1.000000 )  


     PseudoPot. # 1 for Al read from file:
     /home/ben/espresso/pp/Al.pbe-nl-kjpaw_psl.1.0.0.UPF
     MD5 check sum: 339dbea23cf3ab9a065ad45c0f9085d7
     Pseudo is Projector augmented-wave + core cor, Zval =  3.0
     Generated using "atomic" code by A. Dal Corso  v.5.1
     Shape of augmentation charge: PSQ
     Using radial grid of 1135 points,  4 beta functions with: 
                l(1) =   0
                l(2) =   0
                l(3) =   1
                l(4) =   1
     Q(r) pseudized with 0 coefficients 


     PseudoPot. # 2 for Al read from file:
     /home/ben/espresso/pp/Al.pbe-nl-kjpaw_psl.1.0.0.UPF
     MD5 check sum: 339dbea23cf3ab9a065ad45c0f9085d7
     Pseudo is Projector augmented-wave + core cor, Zval =  3.0
     Generated using "atomic" code by A. Dal Corso  v.5.1
     Shape of augmentation charge: PSQ
     Using radial grid of 1135 points,  4 beta functions with: 
                l(1) =   0
                l(2) =   0
                l(3) =   1
                l(4) =   1
     Q(r) pseudized with 0 coefficients 


     PseudoPot. # 3 for Al read from file:
     /home/ben/espresso/pp/Al.pbe-nl-kjpaw_psl.1.0.0.UPF
     MD5 check sum: 339dbea23cf3ab9a065ad45c0f9085d7
     Pseudo is Projector augmented-wave + core cor, Zval =  3.0
     Generated using "atomic" code by A. Dal Corso  v.5.1
     Shape of augmentation charge: PSQ
     Using radial grid of 1135 points,  4 beta functions with: 
                l(1) =   0
                l(2) =   0
                l(3) =   1
                l(4) =   1
     Q(r) pseudized with 0 coefficients 


     PseudoPot. # 4 for Al read from file:
     /home/ben/espresso/pp/Al.pbe-nl-kjpaw_psl.1.0.0.UPF
     MD5 check sum: 339dbea23cf3ab9a065ad45c0f9085d7
     Pseudo is Projector augmented-wave + core cor, Zval =  3.0
     Generated using "atomic" code by A. Dal Corso  v.5.1
     Shape of augmentation charge: PSQ
     Using radial grid of 1135 points,  4 beta functions with: 
                l(1) =   0
                l(2) =   0
                l(3) =   1
                l(4) =   1
     Q(r) pseudized with 0 coefficients 


     atomic species   valence    mass     pseudopotential
        Al1            3.00    26.98200     Al( 1.00)
        Al2            3.00    26.98200     Al( 1.00)
        Al3            3.00    26.98200     Al( 1.00)
        Al4            3.00    26.98200     Al( 1.00)

     No symmetry found



   Cartesian axes

     site n.     atom                  positions (alat units)
         1           Al1 tau(   1) = (   0.9987825   0.0003543   0.0025349  )
         2           Al2 tau(   2) = (   0.5029658   0.4929216   0.0026201  )
         3           Al3 tau(   3) = (   0.4965399   0.0011361   0.5110096  )
         4           Al4 tau(   4) = (   0.9992547   0.5081488   0.5068441  )

     number of k points=    63  Marzari-Vanderbilt smearing, width (Ry)=  0.0200
                       cart. coord. in units 2pi/alat
        k(    1) = (   0.1000000   0.1000000   0.1000000), wk =   0.0320000
        k(    2) = (   0.1000000   0.1000000   0.3000000), wk =   0.0320000
        k(    3) = (   0.1000000   0.1000000  -0.5000000), wk =   0.0320000
        k(    4) = (   0.1000000   0.3000000   0.3000000), wk =   0.0320000
        k(    5) = (   0.1000000   0.3000000  -0.5000000), wk =   0.0320000
        k(    6) = (   0.1000000  -0.5000000  -0.5000000), wk =   0.0320000
        k(    7) = (   0.3000000   0.3000000   0.3000000), wk =   0.0320000
        k(    8) = (   0.3000000   0.3000000  -0.5000000), wk =   0.0320000
        k(    9) = (   0.3000000  -0.5000000  -0.5000000), wk =   0.0320000
        k(   10) = (  -0.5000000  -0.5000000  -0.5000000), wk =   0.0160000
        k(   11) = (  -0.1000000  -0.1000000   0.1000000), wk =   0.0320000
        k(   12) = (  -0.1000000   0.1000000  -0.1000000), wk =   0.0320000
        k(   13) = (   0.1000000  -0.1000000  -0.1000000), wk =   0.0320000
        k(   14) = (  -0.1000000  -0.1000000   0.3000000), wk =   0.0320000
        k(   15) = (  -0.1000000   0.1000000  -0.3000000), wk =   0.0320000
        k(   16) = (   0.1000000  -0.1000000  -0.3000000), wk =   0.0320000
        k(   17) = (   0.3000000  -0.1000000   0.1000000), wk =   0.0320000
        k(   18) = (  -0.3000000  -0.1000000  -0.1000000), wk =   0.0320000
        k(   19) = (   0.3000000   0.1000000  -0.1000000), wk =   0.0320000
        k(   20) = (  -0.3000000   0.1000000   0.1000000), wk =   0.0320000
        k(   21) = (  -0.1000000   0.3000000   0.1000000), wk =   0.0320000
        k(   22) = (  -0.1000000  -0.3000000  -0.1000000), wk =   0.0320000
        k(   23) = (   0.1000000   0.3000000  -0.1000000), wk =   0.0320000
        k(   24) = (   0.1000000  -0.3000000   0.1000000), wk =   0.0320000
        k(   25) = (  -0.1000000   0.1000000   0.5000000), wk =   0.0320000
        k(   26) = (  -0.5000000  -0.1000000   0.1000000), wk =   0.0320000
        k(   27) = (   0.5000000  -0.1000000  -0.1000000), wk =   0.0320000
        k(   28) = (  -0.1000000  -0.5000000   0.1000000), wk =   0.0320000
        k(   29) = (  -0.1000000   0.5000000  -0.1000000), wk =   0.0320000
        k(   30) = (  -0.1000000  -0.3000000   0.3000000), wk =   0.0320000
        k(   31) = (  -0.1000000   0.3000000  -0.3000000), wk =   0.0320000
        k(   32) = (   0.1000000  -0.3000000  -0.3000000), wk =   0.0320000
        k(   33) = (   0.3000000   0.1000000  -0.3000000), wk =   0.0320000
        k(   34) = (  -0.3000000  -0.1000000  -0.3000000), wk =   0.0320000
        k(   35) = (   0.3000000  -0.1000000   0.3000000), wk =   0.0320000
        k(   36) = (  -0.3000000   0.1000000   0.3000000), wk =   0.0320000
        k(   37) = (   0.3000000  -0.3000000   0.1000000), wk =   0.0320000
        k(   38) = (  -0.3000000  -0.3000000  -0.1000000), wk =   0.0320000
        k(   39) = (   0.3000000   0.3000000  -0.1000000), wk =   0.0320000
        k(   40) = (  -0.3000000   0.3000000   0.1000000), wk =   0.0320000
        k(   41) = (  -0.1000000   0.3000000   0.5000000), wk =   0.0320000
        k(   42) = (   0.3000000   0.1000000   0.5000000), wk =   0.0320000
        k(   43) = (   0.3000000  -0.1000000  -0.5000000), wk =   0.0320000
        k(   44) = (  -0.5000000  -0.3000000   0.1000000), wk =   0.0320000
        k(   45) = (   0.5000000  -0.3000000  -0.1000000), wk =   0.0320000
        k(   46) = (  -0.1000000  -0.5000000   0.3000000), wk =   0.0320000
        k(   47) = (  -0.1000000   0.5000000  -0.3000000), wk =   0.0320000
        k(   48) = (   0.3000000  -0.5000000   0.1000000), wk =   0.0320000
        k(   49) = (   0.3000000   0.5000000  -0.1000000), wk =   0.0320000
        k(   50) = (  -0.5000000   0.1000000   0.3000000), wk =   0.0320000
        k(   51) = (   0.5000000  -0.1000000   0.3000000), wk =   0.0320000
        k(   52) = (  -0.5000000   0.1000000   0.5000000), wk =   0.0320000
        k(   53) = (  -0.5000000   0.5000000   0.1000000), wk =   0.0320000
        k(   54) = (  -0.3000000  -0.3000000   0.3000000), wk =   0.0320000
        k(   55) = (  -0.3000000   0.3000000  -0.3000000), wk =   0.0320000
        k(   56) = (   0.3000000  -0.3000000  -0.3000000), wk =   0.0320000
        k(   57) = (  -0.3000000   0.3000000   0.5000000), wk =   0.0320000
        k(   58) = (  -0.5000000  -0.3000000   0.3000000), wk =   0.0320000
        k(   59) = (   0.5000000  -0.3000000  -0.3000000), wk =   0.0320000
        k(   60) = (  -0.3000000  -0.5000000   0.3000000), wk =   0.0320000
        k(   61) = (  -0.3000000   0.5000000  -0.3000000), wk =   0.0320000
        k(   62) = (  -0.5000000   0.3000000   0.5000000), wk =   0.0320000
        k(   63) = (  -0.5000000   0.5000000   0.3000000), wk =   0.0320000

     Dense  grid:    21247 G-vectors     FFT dimensions: (  36,  36,  36)

     Smooth grid:    12533 G-vectors     FFT dimensions: (  30,  30,  30)

     Estimated max dynamical RAM per process >       9.70Mb

     Estimated total allocated dynamical RAM >      38.81Mb

     Initial potential from superposition of free atoms

     starting charge   11.99084, renormalised to   12.00000
     Starting wfc are   16 randomized atomic wfcs
     Checking if some PAW data can be deallocated... 

     total cpu time spent up to now is        4.1 secs

     per-process dynamical memory:    16.8 Mb

     Self-consistent Calculation

     iteration #  1     ecut=    35.00 Ry     beta=0.30
     Davidson diagonalization with overlap
     ethr =  1.00E-02,  avg # of iterations =  3.1

     Threshold (ethr) on eigenvalues was too large:
     Diagonalizing with lowered threshold

     Davidson diagonalization with overlap
     ethr =  1.97E-04,  avg # of iterations =  3.6

     total cpu time spent up to now is       14.9 secs

     total energy              =    -158.00309267 Ry
     Harris-Foulkes estimate   =    -158.00554638 Ry
     estimated scf accuracy    <       0.02308781 Ry

     iteration #  2     ecut=    35.00 Ry     beta=0.30
     Davidson diagonalization with overlap
     ethr =  1.92E-04,  avg # of iterations =  1.5

     total cpu time spent up to now is       16.3 secs

     total energy              =    -157.99863233 Ry
     Harris-Foulkes estimate   =    -158.00324354 Ry
     estimated scf accuracy    <       0.01433555 Ry

     iteration #  3     ecut=    35.00 Ry     beta=0.30
     Davidson diagonalization with overlap
     ethr =  1.19E-04,  avg # of iterations =  1.4

     total cpu time spent up to now is       17.6 secs

     total energy              =    -157.99895479 Ry
     Harris-Foulkes estimate   =    -157.99900922 Ry
     estimated scf accuracy    <       0.00002980 Ry

     iteration #  4     ecut=    35.00 Ry     beta=0.30
     Davidson diagonalization with overlap
     c_bands:  2 eigenvalues not converged
     ethr =  2.48E-07,  avg # of iterations =  7.3

     total cpu time spent up to now is       20.2 secs

     total energy              =    -157.99902610 Ry
     Harris-Foulkes estimate   =    -157.99903962 Ry
     estimated scf accuracy    <       0.00002467 Ry

     iteration #  5     ecut=    35.00 Ry     beta=0.30
     Davidson diagonalization with overlap
     ethr =  2.06E-07,  avg # of iterations =  1.3

     total cpu time spent up to now is       21.6 secs

     total energy              =    -157.99900665 Ry
     Harris-Foulkes estimate   =    -157.99902650 Ry
     estimated scf accuracy    <       0.00001304 Ry

     iteration #  6     ecut=    35.00 Ry     beta=0.30
     Davidson diagonalization with overlap
     ethr =  1.09E-07,  avg # of iterations =  2.1

     total cpu time spent up to now is       23.3 secs

     End of self-consistent calculation

          k = 0.1000 0.1000 0.1000 (  1542 PWs)   bands (ev):

    -2.9549   4.0153   4.0606   4.1036   7.7150   7.7659   7.8145  10.7343
    10.7874  10.8456

          k = 0.1000 0.1000 0.3000 (  1532 PWs)   bands (ev):

    -2.2319   1.3298   4.7104   4.7739   7.9946   8.1076   8.5578   8.5698
    11.3793  11.8059

          k = 0.1000 0.1000-0.5000 (  1556 PWs)   bands (ev):

    -0.8601  -0.7299   5.9487   5.9816   6.2367   6.2700   9.5231   9.5329
    10.2073  10.2171

          k = 0.1000 0.3000 0.3000 (  1565 PWs)   bands (ev):

    -1.5122   2.0019   2.0592   5.3256   5.5969   8.7791   8.8586   9.1747
    12.1343  12.1812

          k = 0.1000 0.3000-0.5000 (  1560 PWs)   bands (ev):

    -0.1476  -0.0172   3.3568   3.4892   6.7298   6.8712  10.0924  10.2403
    10.4553  10.5773

          k = 0.1000-0.5000-0.5000 (  1548 PWs)   bands (ev):

     1.2548   1.2715   1.3960   1.4071   8.0655   8.0870   8.2249   8.2394
    11.7873  11.8003

          k = 0.3000 0.3000 0.3000 (  1556 PWs)   bands (ev):

    -0.7960   2.6808   2.7292   2.7750   6.1375   6.1875   6.2389   9.5751
    13.0473  13.1008

          k = 0.3000 0.3000-0.5000 (  1546 PWs)   bands (ev):

     0.5616   0.6921   3.9616   3.9929   4.2560   4.2869   7.4820   7.6211
    14.1732  14.1960

          k = 0.3000-0.5000-0.5000 (  1564 PWs)   bands (ev):

     1.9568   1.9734   2.0981   2.1091   5.4288   5.4464   5.5750   5.5864
    15.5782  15.5953

          k =-0.5000-0.5000-0.5000 (  1568 PWs)   bands (ev):

     3.2800   3.2935   3.3120   3.3211   3.5521   3.5613   3.5766   3.5927
    19.2239  19.2576

          k =-0.1000-0.1000 0.1000 (  1542 PWs)   bands (ev):

    -2.9549   4.0243   4.0605   4.0942   7.7256   7.7663   7.8043  10.7459
    10.7869  10.8339

          k =-0.1000 0.1000-0.1000 (  1542 PWs)   bands (ev):

    -2.9549   4.0333   4.0603   4.0850   7.7362   7.7660   7.7944  10.7562
    10.7890  10.8212

          k = 0.1000-0.1000-0.1000 (  1542 PWs)   bands (ev):

    -2.9549   4.0290   4.0597   4.0904   7.7304   7.7657   7.7995  10.7509
    10.7879  10.8282

          k =-0.1000-0.1000 0.3000 (  1532 PWs)   bands (ev):

    -2.2320   1.3299   4.7102   4.7737   7.9965   8.1097   8.5561   8.5683
    11.3787  11.8203

          k =-0.1000 0.1000-0.3000 (  1532 PWs)   bands (ev):

    -2.2320   1.3299   4.7272   4.7562   8.0267   8.0785   8.5598   8.5654
    11.3789  11.8154

          k = 0.1000-0.1000-0.3000 (  1532 PWs)   bands (ev):

    -2.2320   1.3298   4.7274   4.7565   8.0233   8.0749   8.5633   8.5688
    11.3780  11.8094

          k = 0.3000-0.1000 0.1000 (  1532 PWs)   bands (ev):

    -2.2315   1.3278   4.7285   4.7580   8.0246   8.0772   8.5606   8.5664
    11.3827  11.8031

          k =-0.3000-0.1000-0.1000 (  1532 PWs)   bands (ev):

    -2.2315   1.3277   4.7166   4.7706   8.0028   8.0992   8.5577   8.5680
    11.3787  11.7830

          k = 0.3000 0.1000-0.1000 (  1532 PWs)   bands (ev):

    -2.2315   1.3277   4.7286   4.7581   8.0244   8.0770   8.5604   8.5661
    11.3835  11.8081

          k =-0.3000 0.1000 0.1000 (  1532 PWs)   bands (ev):

    -2.2315   1.3279   4.7164   4.7704   8.0029   8.0992   8.5579   8.5683
    11.3765  11.8153

          k =-0.1000 0.3000 0.1000 (  1532 PWs)   bands (ev):

    -2.2315   1.3277   4.7392   4.7477   8.0433   8.0580   8.5615   8.5644
    11.3802  11.7738

          k =-0.1000-0.3000-0.1000 (  1532 PWs)   bands (ev):

    -2.2315   1.3276   4.7279   4.7595   8.0227   8.0792   8.5594   8.5654
    11.3835  11.7650

          k = 0.1000 0.3000-0.1000 (  1532 PWs)   bands (ev):

    -2.2315   1.3276   4.7393   4.7476   8.0440   8.0588   8.5619   8.5636
    11.3816  11.7463

          k = 0.1000-0.3000 0.1000 (  1532 PWs)   bands (ev):

    -2.2315   1.3278   4.7275   4.7591   8.0240   8.0805   8.5593   8.5653
    11.3820  11.7543

          k =-0.1000 0.1000 0.5000 (  1556 PWs)   bands (ev):

    -0.8601  -0.7299   5.9591   5.9746   6.2435   6.2589   9.5272   9.5319
    10.2087  10.2132

          k =-0.5000-0.1000 0.1000 (  1556 PWs)   bands (ev):

    -0.8033  -0.7883   5.9836   5.9855   6.2320   6.2352   9.5332   9.5339
    10.2047  10.2071

          k = 0.5000-0.1000-0.1000 (  1556 PWs)   bands (ev):

    -0.8033  -0.7883   5.9815   5.9851   6.2332   6.2372   9.5330   9.5336
    10.2044  10.2053

          k =-0.1000-0.5000 0.1000 (  1556 PWs)   bands (ev):

    -0.7986  -0.7931   5.9844   5.9881   6.2302   6.2338   9.5310   9.5357
    10.2040  10.2074

          k =-0.1000 0.5000-0.1000 (  1556 PWs)   bands (ev):

    -0.7986  -0.7931   5.9833   5.9872   6.2314   6.2348   9.5303   9.5351
    10.2051  10.2082

          k =-0.1000-0.3000 0.3000 (  1565 PWs)   bands (ev):

    -1.5123   2.0147   2.0462   5.3261   5.5969   8.7959   8.8392   9.1768
    12.1612  12.1848

          k =-0.1000 0.3000-0.3000 (  1565 PWs)   bands (ev):

    -1.5123   2.0148   2.0462   5.3257   5.5971   8.7967   8.8402   9.1749
    12.1657  12.1820

          k = 0.1000-0.3000-0.3000 (  1565 PWs)   bands (ev):

    -1.5123   2.0020   2.0593   5.3253   5.5971   8.7777   8.8570   9.1777
    12.1396  12.1735

          k = 0.3000 0.1000-0.3000 (  1565 PWs)   bands (ev):

    -1.5122   2.0259   2.0350   5.3255   5.5972   8.8092   8.8233   9.1801
    12.1525  12.2081

          k =-0.3000-0.1000-0.3000 (  1565 PWs)   bands (ev):

    -1.5122   2.0136   2.0472   5.3263   5.5968   8.7900   8.8369   9.1857
    12.1517  12.1832

          k = 0.3000-0.1000 0.3000 (  1565 PWs)   bands (ev):

    -1.5122   2.0137   2.0473   5.3252   5.5974   8.7924   8.8391   9.1813
    12.1575  12.1833

          k =-0.3000 0.1000 0.3000 (  1565 PWs)   bands (ev):

    -1.5123   2.0259   2.0350   5.3258   5.5970   8.8051   8.8207   9.1868
    12.1518  12.2068

          k = 0.3000-0.3000 0.1000 (  1565 PWs)   bands (ev):

    -1.5118   2.0143   2.0452   5.3258   5.5969   8.7983   8.8410   9.1761
    12.1577  12.1839

          k =-0.3000-0.3000-0.1000 (  1565 PWs)   bands (ev):

    -1.5117   1.9961   2.0635   5.3265   5.5965   8.7728   8.8661   9.1753
    12.1373  12.1735

          k = 0.3000 0.3000-0.1000 (  1565 PWs)   bands (ev):

    -1.5117   1.9961   2.0636   5.3258   5.5969   8.7730   8.8663   9.1760
    12.1393  12.1695

          k =-0.3000 0.3000 0.1000 (  1565 PWs)   bands (ev):

    -1.5118   2.0143   2.0452   5.3266   5.5964   8.7979   8.8406   9.1749
    12.1569  12.1897

          k =-0.1000 0.3000 0.5000 (  1560 PWs)   bands (ev):

    -0.1476  -0.0173   3.3569   3.4893   6.7295   6.8708  10.0918  10.2393
    10.4569  10.5783

          k = 0.3000 0.1000 0.5000 (  1560 PWs)   bands (ev):

    -0.1475  -0.0172   3.3567   3.4891   6.7299   6.8713  10.0895  10.2378
    10.4578  10.5803

          k = 0.3000-0.1000-0.5000 (  1560 PWs)   bands (ev):

    -0.1475  -0.0172   3.3568   3.4892   6.7296   6.8709  10.0889  10.2371
    10.4588  10.5814

          k =-0.5000-0.3000 0.1000 (  1560 PWs)   bands (ev):

    -0.0907  -0.0757   3.4147   3.4300   6.7927   6.8090  10.1604  10.1777
    10.5082  10.5222

          k = 0.5000-0.3000-0.1000 (  1560 PWs)   bands (ev):

    -0.0907  -0.0757   3.4147   3.4300   6.7931   6.8094  10.1533  10.1707
    10.5138  10.5297

          k =-0.1000-0.5000 0.3000 (  1560 PWs)   bands (ev):

    -0.0865  -0.0809   3.4219   3.4271   6.7953   6.8019  10.1635  10.1700
    10.5140  10.5188

          k =-0.1000 0.5000-0.3000 (  1560 PWs)   bands (ev):

    -0.0865  -0.0809   3.4218   3.4270   6.7953   6.8019  10.1660  10.1715
    10.5114  10.5177

          k = 0.3000-0.5000 0.1000 (  1560 PWs)   bands (ev):

    -0.0860  -0.0805   3.4195   3.4253   6.7982   6.8038  10.1621  10.1716
    10.5143  10.5201

          k = 0.3000 0.5000-0.1000 (  1560 PWs)   bands (ev):

    -0.0860  -0.0805   3.4196   3.4254   6.7981   6.8037  10.1586  10.1704
    10.5151  10.5241

          k =-0.5000 0.1000 0.3000 (  1560 PWs)   bands (ev):

    -0.0911  -0.0761   3.4166   3.4319   6.7909   6.8072  10.1519  10.1693
    10.5147  10.5294

          k = 0.5000-0.1000 0.3000 (  1560 PWs)   bands (ev):

    -0.0911  -0.0761   3.4166   3.4319   6.7905   6.8068  10.1578  10.1756
    10.5099  10.5239

          k =-0.5000 0.1000 0.5000 (  1548 PWs)   bands (ev):

     1.2567   1.2753   1.3884   1.4089   8.0693   8.0917   8.2153   8.2398
    11.7869  11.8030

          k =-0.5000 0.5000 0.1000 (  1548 PWs)   bands (ev):

     1.2966   1.3144   1.3476   1.3678   8.1094   8.1331   8.1758   8.2018
    11.8419  11.8474

          k =-0.3000-0.3000 0.3000 (  1556 PWs)   bands (ev):

    -0.7961   2.6902   2.7296   2.7648   6.1488   6.1864   6.2290   9.5757
    13.0588  13.1012

          k =-0.3000 0.3000-0.3000 (  1556 PWs)   bands (ev):

    -0.7961   2.7003   2.7287   2.7554   6.1582   6.1885   6.2175   9.5760
    13.0700  13.1026

          k = 0.3000-0.3000-0.3000 (  1556 PWs)   bands (ev):

    -0.7961   2.6955   2.7282   2.7610   6.1527   6.1880   6.2231   9.5748
    13.0642  13.1006

          k =-0.3000 0.3000 0.5000 (  1546 PWs)   bands (ev):

     0.5615   0.6921   3.9722   3.9869   4.2618   4.2761   7.4821   7.6212
    14.1819  14.1933

          k =-0.5000-0.3000 0.3000 (  1546 PWs)   bands (ev):

     0.6180   0.6330   3.9944   3.9962   4.2516   4.2546   7.5452   7.5614
    14.1940  14.1957

          k = 0.5000-0.3000-0.3000 (  1546 PWs)   bands (ev):

     0.6180   0.6330   3.9918   3.9952   4.2533   4.2570   7.5446   7.5607
    14.1942  14.1960

          k =-0.3000-0.5000 0.3000 (  1546 PWs)   bands (ev):

     0.6226   0.6283   3.9949   3.9983   4.2502   4.2535   7.5503   7.5559
    14.1968  14.6024

          k =-0.3000 0.5000-0.3000 (  1546 PWs)   bands (ev):

     0.6227   0.6283   3.9937   3.9974   4.2514   4.2545   7.5504   7.5561
    14.1910  14.1975

          k =-0.5000 0.3000 0.5000 (  1564 PWs)   bands (ev):

     1.9585   1.9772   2.0905   2.1109   5.4310   5.4504   5.5671   5.5884
    15.5798  15.5997

          k =-0.5000 0.5000 0.3000 (  1564 PWs)   bands (ev):

     1.9983   2.0160   2.0490   2.0691   5.4740   5.4926   5.5270   5.5480
    15.6238  15.6399

     the Fermi energy is     8.0707 ev

!    total energy              =    -157.99900969 Ry
     Harris-Foulkes estimate   =    -157.99900991 Ry
     estimated scf accuracy    <       0.00000023 Ry

     total all-electron energy =     -1942.570137 Ry

     The total energy is the sum of the following terms:

     one-electron contribution =      12.68425877 Ry
     hartree contribution      =       0.02544818 Ry
     xc contribution           =     -10.36847058 Ry
     ewald contribution        =     -21.62934133 Ry
     one-center paw contrib.   =    -138.70923094 Ry
     smearing contrib. (-TS)   =      -0.00167380 Ry

     convergence has been achieved in   6 iterations

     Forces acting on atoms (Ry/au):

     atom    1 type  1   force =     0.00060159    0.00000982    0.00437354
     atom    2 type  2   force =    -0.00185615    0.00333664    0.00434185
     atom    3 type  3   force =     0.00082724   -0.00032194   -0.00523736
     atom    4 type  4   force =     0.00042732   -0.00302453   -0.00347803

     Total force =     0.010127     Total SCF correction =     0.000187


     entering subroutine stress ...

          total   stress  (Ry/bohr**3)                   (kbar)     P=    1.52
   0.00000976  -0.00000122  -0.00000185          1.44     -0.18     -0.27
  -0.00000122   0.00001602   0.00000460         -0.18      2.36      0.68
  -0.00000185   0.00000460   0.00000523         -0.27      0.68      0.77


     Writing output data file template.save

     init_run     :      3.06s CPU      3.15s WALL (       1 calls)
     electrons    :     18.82s CPU     19.20s WALL (       1 calls)
     forces       :      0.19s CPU      0.21s WALL (       1 calls)
     stress       :      0.51s CPU      0.51s WALL (       1 calls)

     Called by init_run:
     wfcinit      :      2.55s CPU      2.62s WALL (       1 calls)
     potinit      :      0.11s CPU      0.11s WALL (       1 calls)

     Called by electrons:
     c_bands      :     15.89s CPU     16.22s WALL (       7 calls)
     sum_band     :      2.33s CPU      2.37s WALL (       7 calls)
     v_of_rho     :      0.08s CPU      0.08s WALL (       7 calls)
     newd         :      0.09s CPU      0.09s WALL (       7 calls)
     PAW_pot      :      0.46s CPU      0.47s WALL (       7 calls)
     mix_rho      :      0.04s CPU      0.04s WALL (       7 calls)

     Called by c_bands:
     init_us_2    :      0.37s CPU      0.35s WALL (    1071 calls)
     cegterg      :     15.51s CPU     15.80s WALL (     441 calls)

     Called by sum_band:
     sum_band:bec :      0.00s CPU      0.01s WALL (     441 calls)
     addusdens    :      0.15s CPU      0.15s WALL (       7 calls)

     Called by *egterg:
     h_psi        :     15.71s CPU     16.02s WALL (    1780 calls)
     s_psi        :      0.27s CPU      0.31s WALL (    1780 calls)
     g_psi        :      0.04s CPU      0.04s WALL (    1276 calls)
     cdiaghg      :      0.65s CPU      0.64s WALL (    1654 calls)

     Called by h_psi:
     h_psi:pot    :     15.67s CPU     15.98s WALL (    1780 calls)
     h_psi:calbec :      0.42s CPU      0.43s WALL (    1780 calls)
     vloc_psi     :     14.91s CPU     15.20s WALL (    1780 calls)
     add_vuspsi   :      0.33s CPU      0.33s WALL (    1780 calls)

     General routines
     calbec       :      0.55s CPU      0.62s WALL (    2536 calls)
     fft          :      0.10s CPU      0.10s WALL (     137 calls)
     ffts         :      0.04s CPU      0.03s WALL (      79 calls)
     fftw         :     16.12s CPU     16.38s WALL (   30418 calls)
     interpolate  :      0.02s CPU      0.02s WALL (      14 calls)
     davcio       :      0.00s CPU      0.00s WALL (      63 calls)

     Parallel routines
     fft_scatter  :      3.09s CPU      3.24s WALL (   30634 calls)

     PWSCF        :    23.66s CPU        24.28s WALL


   This run was terminated on:  15:52:45   9Jun2017            

=------------------------------------------------------------------------------=
   JOB DONE.
=------------------------------------------------------------------------------=
