
     Program PWSCF v.6.0 (svn rev. 13079) starts on  9Jun2017 at 15:54:37 

     This program is part of the open-source Quantum ESPRESSO suite
     for quantum simulation of materials; please cite
         "P. Giannozzi et al., J. Phys.:Condens. Matter 21 395502 (2009);
          URL http://www.quantum-espresso.org", 
     in publications or presentations arising from this work. More details at
     http://www.quantum-espresso.org/quote

     Parallel version (MPI), running on     4 processors
     R & G space division:  proc/nbgrp/npool/nimage =       4
     Waiting for input...
     Reading input from standard input
Warning: card &IONS ignored
Warning: card ION_DYNAMICS='BFGS', ignored
Warning: card / ignored
Warning: card &CELL ignored
Warning: card CELL_DYNAMICS='BFGS', ignored
Warning: card PRESS = 0.0, ignored
Warning: card CELL_FACTOR = 2.0, ignored
Warning: card / ignored

     Current dimensions of program PWSCF are:
     Max number of different atomic species (ntypx) = 10
     Max number of k-points (npk) =  40000
     Max angular momentum in pseudopotentials (lmaxx) =  3
               file Al.pbe-nl-kjpaw_psl.1.0.0.UPF: wavefunction(s)  3S 3P renormalized
               file Al.pbe-nl-kjpaw_psl.1.0.0.UPF: wavefunction(s)  3S 3P renormalized
               file Al.pbe-nl-kjpaw_psl.1.0.0.UPF: wavefunction(s)  3S 3P renormalized
               file Al.pbe-nl-kjpaw_psl.1.0.0.UPF: wavefunction(s)  3S 3P renormalized

     Subspace diagonalization in iterative solution of the eigenvalue problem:
     a serial algorithm will be used


     Parallelization info
     --------------------
     sticks:   dense  smooth     PW     G-vecs:    dense   smooth      PW
     Min         232     164     49                 5310     3132     527
     Max         234     165     50                 5313     3135     528
     Sum         933     657    197                21247    12533    2109



     bravais-lattice index     =            0
     lattice parameter (alat)  =       7.6300  a.u.
     unit-cell volume          =     444.1949 (a.u.)^3
     number of atoms/cell      =            4
     number of atomic types    =            4
     number of electrons       =        12.00
     number of Kohn-Sham states=           10
     kinetic-energy cutoff     =      35.0000  Ry
     charge density cutoff     =     200.0000  Ry
     convergence threshold     =      1.0E-06
     mixing beta               =       0.3000
     number of iterations used =           10  local-TF  mixing
     Exchange-correlation      =  SLA  PW   PBX  PBC ( 1  4  3  4 0 0)

     celldm(1)=   7.630000  celldm(2)=   0.000000  celldm(3)=   0.000000
     celldm(4)=   0.000000  celldm(5)=   0.000000  celldm(6)=   0.000000

     crystal axes: (cart. coord. in units of alat)
               a(1) = (   1.000000   0.000000   0.000000 )  
               a(2) = (   0.000000   1.000000   0.000000 )  
               a(3) = (   0.000000   0.000000   1.000000 )  

     reciprocal axes: (cart. coord. in units 2 pi/alat)
               b(1) = (  1.000000  0.000000  0.000000 )  
               b(2) = (  0.000000  1.000000  0.000000 )  
               b(3) = (  0.000000  0.000000  1.000000 )  


     PseudoPot. # 1 for Al read from file:
     /home/ben/espresso/pp/Al.pbe-nl-kjpaw_psl.1.0.0.UPF
     MD5 check sum: 339dbea23cf3ab9a065ad45c0f9085d7
     Pseudo is Projector augmented-wave + core cor, Zval =  3.0
     Generated using "atomic" code by A. Dal Corso  v.5.1
     Shape of augmentation charge: PSQ
     Using radial grid of 1135 points,  4 beta functions with: 
                l(1) =   0
                l(2) =   0
                l(3) =   1
                l(4) =   1
     Q(r) pseudized with 0 coefficients 


     PseudoPot. # 2 for Al read from file:
     /home/ben/espresso/pp/Al.pbe-nl-kjpaw_psl.1.0.0.UPF
     MD5 check sum: 339dbea23cf3ab9a065ad45c0f9085d7
     Pseudo is Projector augmented-wave + core cor, Zval =  3.0
     Generated using "atomic" code by A. Dal Corso  v.5.1
     Shape of augmentation charge: PSQ
     Using radial grid of 1135 points,  4 beta functions with: 
                l(1) =   0
                l(2) =   0
                l(3) =   1
                l(4) =   1
     Q(r) pseudized with 0 coefficients 


     PseudoPot. # 3 for Al read from file:
     /home/ben/espresso/pp/Al.pbe-nl-kjpaw_psl.1.0.0.UPF
     MD5 check sum: 339dbea23cf3ab9a065ad45c0f9085d7
     Pseudo is Projector augmented-wave + core cor, Zval =  3.0
     Generated using "atomic" code by A. Dal Corso  v.5.1
     Shape of augmentation charge: PSQ
     Using radial grid of 1135 points,  4 beta functions with: 
                l(1) =   0
                l(2) =   0
                l(3) =   1
                l(4) =   1
     Q(r) pseudized with 0 coefficients 


     PseudoPot. # 4 for Al read from file:
     /home/ben/espresso/pp/Al.pbe-nl-kjpaw_psl.1.0.0.UPF
     MD5 check sum: 339dbea23cf3ab9a065ad45c0f9085d7
     Pseudo is Projector augmented-wave + core cor, Zval =  3.0
     Generated using "atomic" code by A. Dal Corso  v.5.1
     Shape of augmentation charge: PSQ
     Using radial grid of 1135 points,  4 beta functions with: 
                l(1) =   0
                l(2) =   0
                l(3) =   1
                l(4) =   1
     Q(r) pseudized with 0 coefficients 


     atomic species   valence    mass     pseudopotential
        Al1            3.00    26.98200     Al( 1.00)
        Al2            3.00    26.98200     Al( 1.00)
        Al3            3.00    26.98200     Al( 1.00)
        Al4            3.00    26.98200     Al( 1.00)

     No symmetry found



   Cartesian axes

     site n.     atom                  positions (alat units)
         1           Al1 tau(   1) = (   0.9985352   0.0004262   0.0030497  )
         2           Al2 tau(   2) = (   0.5035681   0.4914840   0.0031522  )
         3           Al3 tau(   3) = (   0.4958372   0.0013669   0.5132455  )
         4           Al4 tau(   4) = (   0.9991033   0.5098037   0.5082340  )

     number of k points=    63  Marzari-Vanderbilt smearing, width (Ry)=  0.0200
                       cart. coord. in units 2pi/alat
        k(    1) = (   0.1000000   0.1000000   0.1000000), wk =   0.0320000
        k(    2) = (   0.1000000   0.1000000   0.3000000), wk =   0.0320000
        k(    3) = (   0.1000000   0.1000000  -0.5000000), wk =   0.0320000
        k(    4) = (   0.1000000   0.3000000   0.3000000), wk =   0.0320000
        k(    5) = (   0.1000000   0.3000000  -0.5000000), wk =   0.0320000
        k(    6) = (   0.1000000  -0.5000000  -0.5000000), wk =   0.0320000
        k(    7) = (   0.3000000   0.3000000   0.3000000), wk =   0.0320000
        k(    8) = (   0.3000000   0.3000000  -0.5000000), wk =   0.0320000
        k(    9) = (   0.3000000  -0.5000000  -0.5000000), wk =   0.0320000
        k(   10) = (  -0.5000000  -0.5000000  -0.5000000), wk =   0.0160000
        k(   11) = (  -0.1000000  -0.1000000   0.1000000), wk =   0.0320000
        k(   12) = (  -0.1000000   0.1000000  -0.1000000), wk =   0.0320000
        k(   13) = (   0.1000000  -0.1000000  -0.1000000), wk =   0.0320000
        k(   14) = (  -0.1000000  -0.1000000   0.3000000), wk =   0.0320000
        k(   15) = (  -0.1000000   0.1000000  -0.3000000), wk =   0.0320000
        k(   16) = (   0.1000000  -0.1000000  -0.3000000), wk =   0.0320000
        k(   17) = (   0.3000000  -0.1000000   0.1000000), wk =   0.0320000
        k(   18) = (  -0.3000000  -0.1000000  -0.1000000), wk =   0.0320000
        k(   19) = (   0.3000000   0.1000000  -0.1000000), wk =   0.0320000
        k(   20) = (  -0.3000000   0.1000000   0.1000000), wk =   0.0320000
        k(   21) = (  -0.1000000   0.3000000   0.1000000), wk =   0.0320000
        k(   22) = (  -0.1000000  -0.3000000  -0.1000000), wk =   0.0320000
        k(   23) = (   0.1000000   0.3000000  -0.1000000), wk =   0.0320000
        k(   24) = (   0.1000000  -0.3000000   0.1000000), wk =   0.0320000
        k(   25) = (  -0.1000000   0.1000000   0.5000000), wk =   0.0320000
        k(   26) = (  -0.5000000  -0.1000000   0.1000000), wk =   0.0320000
        k(   27) = (   0.5000000  -0.1000000  -0.1000000), wk =   0.0320000
        k(   28) = (  -0.1000000  -0.5000000   0.1000000), wk =   0.0320000
        k(   29) = (  -0.1000000   0.5000000  -0.1000000), wk =   0.0320000
        k(   30) = (  -0.1000000  -0.3000000   0.3000000), wk =   0.0320000
        k(   31) = (  -0.1000000   0.3000000  -0.3000000), wk =   0.0320000
        k(   32) = (   0.1000000  -0.3000000  -0.3000000), wk =   0.0320000
        k(   33) = (   0.3000000   0.1000000  -0.3000000), wk =   0.0320000
        k(   34) = (  -0.3000000  -0.1000000  -0.3000000), wk =   0.0320000
        k(   35) = (   0.3000000  -0.1000000   0.3000000), wk =   0.0320000
        k(   36) = (  -0.3000000   0.1000000   0.3000000), wk =   0.0320000
        k(   37) = (   0.3000000  -0.3000000   0.1000000), wk =   0.0320000
        k(   38) = (  -0.3000000  -0.3000000  -0.1000000), wk =   0.0320000
        k(   39) = (   0.3000000   0.3000000  -0.1000000), wk =   0.0320000
        k(   40) = (  -0.3000000   0.3000000   0.1000000), wk =   0.0320000
        k(   41) = (  -0.1000000   0.3000000   0.5000000), wk =   0.0320000
        k(   42) = (   0.3000000   0.1000000   0.5000000), wk =   0.0320000
        k(   43) = (   0.3000000  -0.1000000  -0.5000000), wk =   0.0320000
        k(   44) = (  -0.5000000  -0.3000000   0.1000000), wk =   0.0320000
        k(   45) = (   0.5000000  -0.3000000  -0.1000000), wk =   0.0320000
        k(   46) = (  -0.1000000  -0.5000000   0.3000000), wk =   0.0320000
        k(   47) = (  -0.1000000   0.5000000  -0.3000000), wk =   0.0320000
        k(   48) = (   0.3000000  -0.5000000   0.1000000), wk =   0.0320000
        k(   49) = (   0.3000000   0.5000000  -0.1000000), wk =   0.0320000
        k(   50) = (  -0.5000000   0.1000000   0.3000000), wk =   0.0320000
        k(   51) = (   0.5000000  -0.1000000   0.3000000), wk =   0.0320000
        k(   52) = (  -0.5000000   0.1000000   0.5000000), wk =   0.0320000
        k(   53) = (  -0.5000000   0.5000000   0.1000000), wk =   0.0320000
        k(   54) = (  -0.3000000  -0.3000000   0.3000000), wk =   0.0320000
        k(   55) = (  -0.3000000   0.3000000  -0.3000000), wk =   0.0320000
        k(   56) = (   0.3000000  -0.3000000  -0.3000000), wk =   0.0320000
        k(   57) = (  -0.3000000   0.3000000   0.5000000), wk =   0.0320000
        k(   58) = (  -0.5000000  -0.3000000   0.3000000), wk =   0.0320000
        k(   59) = (   0.5000000  -0.3000000  -0.3000000), wk =   0.0320000
        k(   60) = (  -0.3000000  -0.5000000   0.3000000), wk =   0.0320000
        k(   61) = (  -0.3000000   0.5000000  -0.3000000), wk =   0.0320000
        k(   62) = (  -0.5000000   0.3000000   0.5000000), wk =   0.0320000
        k(   63) = (  -0.5000000   0.5000000   0.3000000), wk =   0.0320000

     Dense  grid:    21247 G-vectors     FFT dimensions: (  36,  36,  36)

     Smooth grid:    12533 G-vectors     FFT dimensions: (  30,  30,  30)

     Estimated max dynamical RAM per process >       9.70Mb

     Estimated total allocated dynamical RAM >      38.81Mb

     Initial potential from superposition of free atoms

     starting charge   11.99084, renormalised to   12.00000
     Starting wfc are   16 randomized atomic wfcs
     Checking if some PAW data can be deallocated... 

     total cpu time spent up to now is        2.4 secs

     per-process dynamical memory:    16.8 Mb

     Self-consistent Calculation

     iteration #  1     ecut=    35.00 Ry     beta=0.30
     Davidson diagonalization with overlap
     ethr =  1.00E-02,  avg # of iterations =  3.1

     Threshold (ethr) on eigenvalues was too large:
     Diagonalizing with lowered threshold

     Davidson diagonalization with overlap
     ethr =  1.98E-04,  avg # of iterations =  3.7

     total cpu time spent up to now is       13.3 secs

     total energy              =    -158.00291632 Ry
     Harris-Foulkes estimate   =    -158.00539402 Ry
     estimated scf accuracy    <       0.02325101 Ry

     iteration #  2     ecut=    35.00 Ry     beta=0.30
     Davidson diagonalization with overlap
     ethr =  1.94E-04,  avg # of iterations =  1.5

     total cpu time spent up to now is       17.2 secs

     total energy              =    -157.99840714 Ry
     Harris-Foulkes estimate   =    -158.00306975 Ry
     estimated scf accuracy    <       0.01443310 Ry

     iteration #  3     ecut=    35.00 Ry     beta=0.30
     Davidson diagonalization with overlap
     ethr =  1.20E-04,  avg # of iterations =  1.3

     total cpu time spent up to now is       18.7 secs

     total energy              =    -157.99875084 Ry
     Harris-Foulkes estimate   =    -157.99880463 Ry
     estimated scf accuracy    <       0.00003068 Ry

     iteration #  4     ecut=    35.00 Ry     beta=0.30
     Davidson diagonalization with overlap
     c_bands:  2 eigenvalues not converged
     ethr =  2.56E-07,  avg # of iterations =  7.6

     total cpu time spent up to now is       21.7 secs

     total energy              =    -157.99883019 Ry
     Harris-Foulkes estimate   =    -157.99884101 Ry
     estimated scf accuracy    <       0.00002921 Ry

     iteration #  5     ecut=    35.00 Ry     beta=0.30
     Davidson diagonalization with overlap
     ethr =  2.43E-07,  avg # of iterations =  1.2

     total cpu time spent up to now is       23.0 secs

     total energy              =    -157.99880463 Ry
     Harris-Foulkes estimate   =    -157.99883047 Ry
     estimated scf accuracy    <       0.00001823 Ry

     iteration #  6     ecut=    35.00 Ry     beta=0.30
     Davidson diagonalization with overlap
     ethr =  1.52E-07,  avg # of iterations =  2.1

     total cpu time spent up to now is       24.6 secs

     End of self-consistent calculation

          k = 0.1000 0.1000 0.1000 (  1542 PWs)   bands (ev):

    -2.9554   4.0056   4.0606   4.1121   7.7038   7.7655   7.8237  10.7232
    10.7864  10.8573

          k = 0.1000 0.1000 0.3000 (  1532 PWs)   bands (ev):

    -2.2327   1.3300   4.7030   4.7796   7.9822   8.1182   8.5566   8.5713
    11.3782  11.7979

          k = 0.1000 0.1000-0.5000 (  1556 PWs)   bands (ev):

    -0.8738  -0.7166   5.9338   5.9790   6.2386   6.2842   9.5178   9.5319
    10.2073  10.2213

          k = 0.1000 0.3000 0.3000 (  1565 PWs)   bands (ev):

    -1.5130   1.9957   2.0649   5.3250   5.5967   8.7705   8.8663   9.1741
    12.1205  12.1798

          k = 0.1000 0.3000-0.5000 (  1560 PWs)   bands (ev):

    -0.1613  -0.0040   3.3428   3.5026   6.7149   6.8855  10.0761  10.2541
    10.4433  10.5902

          k = 0.1000-0.5000-0.5000 (  1548 PWs)   bands (ev):

     1.2381   1.2591   1.4094   1.4219   8.0464   8.0733   8.2397   8.2562
    11.7713  11.7878

          k = 0.3000 0.3000 0.3000 (  1556 PWs)   bands (ev):

    -0.7968   2.6705   2.7291   2.7840   6.1271   6.1872   6.2493   9.5751
    13.0353  13.1000

          k = 0.3000 0.3000-0.5000 (  1546 PWs)   bands (ev):

     0.5478   0.7054   3.9476   3.9908   4.2577   4.3004   7.4673   7.6353
    14.1622  14.1946

          k = 0.3000-0.5000-0.5000 (  1564 PWs)   bands (ev):

     1.9400   1.9609   2.1115   2.1239   5.4116   5.4337   5.5890   5.6018
    15.5588  15.5814

          k =-0.5000-0.5000-0.5000 (  1568 PWs)   bands (ev):

     3.2632   3.2811   3.3064   3.3193   3.5540   3.5668   3.5878   3.6091
    19.1916  19.2318

          k =-0.1000-0.1000 0.1000 (  1542 PWs)   bands (ev):

    -2.9554   4.0164   4.0605   4.1007   7.7166   7.7660   7.8115  10.7371
    10.7858  10.8432

          k =-0.1000 0.1000-0.1000 (  1542 PWs)   bands (ev):

    -2.9554   4.0273   4.0601   4.0896   7.7295   7.7656   7.7996  10.7492
    10.7888  10.8276

          k = 0.1000-0.1000-0.1000 (  1542 PWs)   bands (ev):

    -2.9554   4.0222   4.0592   4.0962   7.7224   7.7652   7.8057  10.7431
    10.7872  10.8363

          k =-0.1000-0.1000 0.3000 (  1532 PWs)   bands (ev):

    -2.2327   1.3302   4.7027   4.7792   7.9848   8.1212   8.5542   8.5691
    11.3772  11.8183

          k =-0.1000 0.1000-0.3000 (  1532 PWs)   bands (ev):

    -2.2327   1.3301   4.7231   4.7582   8.0211   8.0835   8.5589   8.5656
    11.3775  11.8115

          k = 0.1000-0.1000-0.3000 (  1532 PWs)   bands (ev):

    -2.2327   1.3301   4.7234   4.7585   8.0163   8.0782   8.5639   8.5705
    11.3763  11.8035

          k = 0.3000-0.1000 0.1000 (  1532 PWs)   bands (ev):

    -2.2320   1.3272   4.7251   4.7607   8.0182   8.0815   8.5600   8.5670
    11.3830  11.7937

          k =-0.3000-0.1000-0.1000 (  1532 PWs)   bands (ev):

    -2.2320   1.3270   4.7109   4.7760   7.9920   8.1080   8.5564   8.5689
    11.3772  11.7707

          k = 0.3000 0.1000-0.1000 (  1532 PWs)   bands (ev):

    -2.2320   1.3270   4.7253   4.7609   8.0178   8.0811   8.5596   8.5666
    11.3842  11.8023

          k =-0.3000 0.1000 0.1000 (  1532 PWs)   bands (ev):

    -2.2320   1.3272   4.7106   4.7757   7.9921   8.1080   8.5565   8.5693
    11.3742  11.8077

          k =-0.1000 0.3000 0.1000 (  1532 PWs)   bands (ev):

    -2.2320   1.3270   4.7380   4.7483   8.0406   8.0584   8.5608   8.5648
    11.3795  11.7596

          k =-0.1000-0.3000-0.1000 (  1532 PWs)   bands (ev):

    -2.2320   1.3268   4.7245   4.7625   8.0159   8.0839   8.5583   8.5656
    11.3843  11.7483

          k = 0.1000 0.3000-0.1000 (  1532 PWs)   bands (ev):

    -2.2320   1.3269   4.7381   4.7482   8.0417   8.0595   8.5615   8.5636
    11.3814  11.7265

          k = 0.1000-0.3000 0.1000 (  1532 PWs)   bands (ev):

    -2.2321   1.3271   4.7239   4.7620   8.0178   8.0857   8.5581   8.5655
    11.3820  11.7359

          k =-0.1000 0.1000 0.5000 (  1556 PWs)   bands (ev):

    -0.8738  -0.7166   5.9478   5.9691   6.2482   6.2693   9.5236   9.5304
    10.2092  10.2159

          k =-0.5000-0.1000 0.1000 (  1556 PWs)   bands (ev):

    -0.8054  -0.7873   5.9819   5.9847   6.2318   6.2363   9.5323   9.5334
    10.2036  10.2068

          k = 0.5000-0.1000-0.1000 (  1556 PWs)   bands (ev):

    -0.8054  -0.7873   5.9788   5.9841   6.2334   6.2392   9.5320   9.5329
    10.2030  10.2043

          k =-0.1000-0.5000 0.1000 (  1556 PWs)   bands (ev):

    -0.8000  -0.7928   5.9830   5.9885   6.2291   6.2344   9.5292   9.5361
    10.2024  10.2075

          k =-0.1000 0.5000-0.1000 (  1556 PWs)   bands (ev):

    -0.8000  -0.7928   5.9814   5.9872   6.2308   6.2359   9.5281   9.5352
    10.2040  10.2085

          k =-0.1000-0.3000 0.3000 (  1565 PWs)   bands (ev):

    -1.5131   2.0111   2.0491   5.3257   5.5967   8.7905   8.8426   9.1772
    12.1563  12.1813

          k =-0.1000 0.3000-0.3000 (  1565 PWs)   bands (ev):

    -1.5131   2.0112   2.0491   5.3251   5.5970   8.7916   8.8441   9.1744
    12.1629  12.1770

          k = 0.1000-0.3000-0.3000 (  1565 PWs)   bands (ev):

    -1.5130   1.9958   2.0650   5.3245   5.5969   8.7685   8.8639   9.1784
    12.1267  12.1698

          k = 0.3000 0.1000-0.3000 (  1565 PWs)   bands (ev):

    -1.5130   2.0245   2.0357   5.3248   5.5971   8.8057   8.8235   9.1819
    12.1464  12.2064

          k =-0.3000-0.1000-0.3000 (  1565 PWs)   bands (ev):

    -1.5130   2.0098   2.0503   5.3260   5.5965   8.7823   8.8390   9.1898
    12.1448  12.1775

          k = 0.3000-0.1000 0.3000 (  1565 PWs)   bands (ev):

    -1.5130   2.0099   2.0504   5.3244   5.5974   8.7857   8.8421   9.1835
    12.1516  12.1776

          k =-0.3000 0.1000 0.3000 (  1565 PWs)   bands (ev):

    -1.5131   2.0246   2.0357   5.3254   5.5968   8.7998   8.8200   9.1913
    12.1443  12.2031

          k = 0.3000-0.3000 0.1000 (  1565 PWs)   bands (ev):

    -1.5124   2.0105   2.0477   5.3254   5.5967   8.7939   8.8452   9.1761
    12.1517  12.1796

          k =-0.3000-0.3000-0.1000 (  1565 PWs)   bands (ev):

    -1.5123   1.9885   2.0698   5.3263   5.5961   8.7631   8.8755   9.1750
    12.1227  12.1730

          k = 0.3000 0.3000-0.1000 (  1565 PWs)   bands (ev):

    -1.5123   1.9886   2.0699   5.3253   5.5967   8.7634   8.8757   9.1760
    12.1242  12.1684

          k =-0.3000 0.3000 0.1000 (  1565 PWs)   bands (ev):

    -1.5124   2.0105   2.0477   5.3264   5.5960   8.7933   8.8446   9.1744
    12.1508  12.1875

          k =-0.1000 0.3000 0.5000 (  1560 PWs)   bands (ev):

    -0.1614  -0.0040   3.3429   3.5028   6.7144   6.8850  10.0753  10.2525
    10.4458  10.5916

          k = 0.3000 0.1000 0.5000 (  1560 PWs)   bands (ev):

    -0.1613  -0.0039   3.3425   3.5025   6.7151   6.8857  10.0718  10.2507
    10.4466  10.5946

          k = 0.3000-0.1000-0.5000 (  1560 PWs)   bands (ev):

    -0.1613  -0.0040   3.3427   3.5027   6.7146   6.8852  10.0711  10.2496
    10.4482  10.5961

          k =-0.5000-0.3000 0.1000 (  1560 PWs)   bands (ev):

    -0.0929  -0.0748   3.4125   3.4310   6.7909   6.8106  10.1586  10.1796
    10.5066  10.5236

          k = 0.5000-0.3000-0.1000 (  1560 PWs)   bands (ev):

    -0.0929  -0.0748   3.4125   3.4309   6.7915   6.8112  10.1483  10.1696
    10.5144  10.5345

          k =-0.1000-0.5000 0.3000 (  1560 PWs)   bands (ev):

    -0.0883  -0.0809   3.4215   3.4282   6.7931   6.8019  10.1615  10.1700
    10.5137  10.5199

          k =-0.1000 0.5000-0.3000 (  1560 PWs)   bands (ev):

    -0.0883  -0.0809   3.4214   3.4281   6.7931   6.8019  10.1652  10.1721
    10.5098  10.5183

          k = 0.3000-0.5000 0.1000 (  1560 PWs)   bands (ev):

    -0.0875  -0.0803   3.4180   3.4257   6.7973   6.8046  10.1593  10.1725
    10.5140  10.5218

          k = 0.3000 0.5000-0.1000 (  1560 PWs)   bands (ev):

    -0.0875  -0.0803   3.4180   3.4257   6.7973   6.8045  10.1543  10.1708
    10.5151  10.5276

          k =-0.5000 0.1000 0.3000 (  1560 PWs)   bands (ev):

    -0.0935  -0.0754   3.4152   3.4337   6.7883   6.8080  10.1464  10.1676
    10.5158  10.5339

          k = 0.5000-0.1000 0.3000 (  1560 PWs)   bands (ev):

    -0.0935  -0.0754   3.4153   3.4338   6.7878   6.8074  10.1548  10.1765
    10.5091  10.5260

          k =-0.5000 0.1000 0.5000 (  1548 PWs)   bands (ev):

     1.2408   1.2632   1.3997   1.4245   8.0515   8.0784   8.2275   8.2571
    11.7724  11.7914

          k =-0.5000 0.5000 0.1000 (  1548 PWs)   bands (ev):

     1.2889   1.3101   1.3501   1.3748   8.1002   8.1284   8.1800   8.2116
    11.8374  11.8448

          k =-0.3000-0.3000 0.3000 (  1556 PWs)   bands (ev):

    -0.7969   2.6818   2.7297   2.7717   6.1408   6.1856   6.2375   9.5761
    13.0487  13.1007

          k =-0.3000 0.3000-0.3000 (  1556 PWs)   bands (ev):

    -0.7969   2.6940   2.7285   2.7604   6.1519   6.1887   6.2234   9.5764
    13.0624  13.1015

          k = 0.3000-0.3000-0.3000 (  1556 PWs)   bands (ev):

    -0.7969   2.6883   2.7277   2.7673   6.1453   6.1879   6.2303   9.5748
    13.0560  13.0999

          k =-0.3000 0.3000 0.5000 (  1546 PWs)   bands (ev):

     0.5477   0.7053   3.9619   3.9823   4.2660   4.2858   7.4675   7.6354
    14.1743  14.1904

          k =-0.5000-0.3000 0.3000 (  1546 PWs)   bands (ev):

     0.6156   0.6337   3.9929   3.9956   4.2514   4.2556   7.5441   7.5637
    14.1917  14.1941

          k = 0.5000-0.3000-0.3000 (  1546 PWs)   bands (ev):

     0.6156   0.6337   3.9893   3.9941   4.2538   4.2591   7.5432   7.5627
    14.1918  14.1939

          k =-0.3000-0.5000 0.3000 (  1546 PWs)   bands (ev):

     0.6208   0.6282   3.9937   3.9988   4.2493   4.2541   7.5499   7.5572
    14.1955  14.6002

          k =-0.3000 0.5000-0.3000 (  1546 PWs)   bands (ev):

     0.6208   0.6283   3.9920   3.9973   4.2509   4.2556   7.5500   7.5574
    14.1873  14.1967

          k =-0.5000 0.3000 0.5000 (  1564 PWs)   bands (ev):

     1.9425   1.9649   2.1017   2.1265   5.4147   5.4380   5.5789   5.6048
    15.5622  15.5858

          k =-0.5000 0.5000 0.3000 (  1564 PWs)   bands (ev):

     1.9904   2.0114   2.0512   2.0758   5.4671   5.4892   5.5307   5.5564
    15.6163  15.6353

     the Fermi energy is     8.0687 ev

!    total energy              =    -157.99880894 Ry
     Harris-Foulkes estimate   =    -157.99880932 Ry
     estimated scf accuracy    <       0.00000044 Ry

     total all-electron energy =     -1942.569937 Ry

     The total energy is the sum of the following terms:

     one-electron contribution =      12.68284933 Ry
     hartree contribution      =       0.02617575 Ry
     xc contribution           =     -10.36879970 Ry
     ewald contribution        =     -21.62798246 Ry
     one-center paw contrib.   =    -138.70943540 Ry
     smearing contrib. (-TS)   =      -0.00161645 Ry

     convergence has been achieved in   6 iterations

     Forces acting on atoms (Ry/au):

     atom    1 type  1   force =     0.00071670    0.00002385    0.00526508
     atom    2 type  2   force =    -0.00223244    0.00404824    0.00523021
     atom    3 type  3   force =     0.00100297   -0.00041755   -0.00630437
     atom    4 type  4   force =     0.00051277   -0.00365453   -0.00419092

     Total force =     0.012209     Total SCF correction =     0.000375


     entering subroutine stress ...

          total   stress  (Ry/bohr**3)                   (kbar)     P=    1.84
   0.00001163  -0.00000176  -0.00000267          1.71     -0.26     -0.39
  -0.00000176   0.00002064   0.00000662         -0.26      3.04      0.97
  -0.00000267   0.00000662   0.00000522         -0.39      0.97      0.77


     Writing output data file template.save

     init_run     :      1.38s CPU      1.39s WALL (       1 calls)
     electrons    :     21.86s CPU     22.24s WALL (       1 calls)
     forces       :      0.20s CPU      0.20s WALL (       1 calls)
     stress       :      0.52s CPU      0.53s WALL (       1 calls)

     Called by init_run:
     wfcinit      :      0.88s CPU      0.88s WALL (       1 calls)
     potinit      :      0.11s CPU      0.11s WALL (       1 calls)

     Called by electrons:
     c_bands      :     17.95s CPU     18.27s WALL (       7 calls)
     sum_band     :      3.07s CPU      3.12s WALL (       7 calls)
     v_of_rho     :      0.11s CPU      0.11s WALL (       7 calls)
     newd         :      0.12s CPU      0.12s WALL (       7 calls)
     PAW_pot      :      0.62s CPU      0.62s WALL (       7 calls)
     mix_rho      :      0.06s CPU      0.07s WALL (       7 calls)

     Called by c_bands:
     init_us_2    :      0.34s CPU      0.39s WALL (    1071 calls)
     cegterg      :     17.47s CPU     17.78s WALL (     441 calls)

     Called by sum_band:
     sum_band:bec :      0.01s CPU      0.01s WALL (     441 calls)
     addusdens    :      0.19s CPU      0.20s WALL (       7 calls)

     Called by *egterg:
     h_psi        :     15.96s CPU     16.28s WALL (    1797 calls)
     s_psi        :      0.36s CPU      0.32s WALL (    1797 calls)
     g_psi        :      0.07s CPU      0.04s WALL (    1293 calls)
     cdiaghg      :      0.64s CPU      0.65s WALL (    1671 calls)

     Called by h_psi:
     h_psi:pot    :     15.92s CPU     16.24s WALL (    1797 calls)
     h_psi:calbec :      0.42s CPU      0.45s WALL (    1797 calls)
     vloc_psi     :     15.17s CPU     15.43s WALL (    1797 calls)
     add_vuspsi   :      0.32s CPU      0.35s WALL (    1797 calls)

     General routines
     calbec       :      0.61s CPU      0.66s WALL (    2553 calls)
     fft          :      0.10s CPU      0.12s WALL (     137 calls)
     ffts         :      0.06s CPU      0.05s WALL (      79 calls)
     fftw         :     16.92s CPU     17.16s WALL (   30450 calls)
     interpolate  :      0.02s CPU      0.02s WALL (      14 calls)
     davcio       :      0.00s CPU      0.00s WALL (      63 calls)

     Parallel routines
     fft_scatter  :      3.28s CPU      3.32s WALL (   30666 calls)

     PWSCF        :    25.00s CPU        25.53s WALL


   This run was terminated on:  15:55: 2   9Jun2017            

=------------------------------------------------------------------------------=
   JOB DONE.
=------------------------------------------------------------------------------=
