
     Program PWSCF v.6.0 (svn rev. 13079) starts on  9Jun2017 at 15:50:54 

     This program is part of the open-source Quantum ESPRESSO suite
     for quantum simulation of materials; please cite
         "P. Giannozzi et al., J. Phys.:Condens. Matter 21 395502 (2009);
          URL http://www.quantum-espresso.org", 
     in publications or presentations arising from this work. More details at
     http://www.quantum-espresso.org/quote

     Parallel version (MPI), running on     4 processors
     R & G space division:  proc/nbgrp/npool/nimage =       4
     Waiting for input...
     Reading input from standard input
Warning: card &IONS ignored
Warning: card ION_DYNAMICS='BFGS', ignored
Warning: card / ignored
Warning: card &CELL ignored
Warning: card CELL_DYNAMICS='BFGS', ignored
Warning: card PRESS = 0.0, ignored
Warning: card CELL_FACTOR = 2.0, ignored
Warning: card / ignored

     Current dimensions of program PWSCF are:
     Max number of different atomic species (ntypx) = 10
     Max number of k-points (npk) =  40000
     Max angular momentum in pseudopotentials (lmaxx) =  3
               file Al.pbe-nl-kjpaw_psl.1.0.0.UPF: wavefunction(s)  3S 3P renormalized
               file Al.pbe-nl-kjpaw_psl.1.0.0.UPF: wavefunction(s)  3S 3P renormalized
               file Al.pbe-nl-kjpaw_psl.1.0.0.UPF: wavefunction(s)  3S 3P renormalized
               file Al.pbe-nl-kjpaw_psl.1.0.0.UPF: wavefunction(s)  3S 3P renormalized

     Subspace diagonalization in iterative solution of the eigenvalue problem:
     a serial algorithm will be used


     Parallelization info
     --------------------
     sticks:   dense  smooth     PW     G-vecs:    dense   smooth      PW
     Min         232     164     49                 5310     3132     527
     Max         234     165     50                 5313     3135     528
     Sum         933     657    197                21247    12533    2109



     bravais-lattice index     =            0
     lattice parameter (alat)  =       7.6300  a.u.
     unit-cell volume          =     444.1949 (a.u.)^3
     number of atoms/cell      =            4
     number of atomic types    =            4
     number of electrons       =        12.00
     number of Kohn-Sham states=           10
     kinetic-energy cutoff     =      35.0000  Ry
     charge density cutoff     =     200.0000  Ry
     convergence threshold     =      1.0E-06
     mixing beta               =       0.3000
     number of iterations used =           10  local-TF  mixing
     Exchange-correlation      =  SLA  PW   PBX  PBC ( 1  4  3  4 0 0)

     celldm(1)=   7.630000  celldm(2)=   0.000000  celldm(3)=   0.000000
     celldm(4)=   0.000000  celldm(5)=   0.000000  celldm(6)=   0.000000

     crystal axes: (cart. coord. in units of alat)
               a(1) = (   1.000000   0.000000   0.000000 )  
               a(2) = (   0.000000   1.000000   0.000000 )  
               a(3) = (   0.000000   0.000000   1.000000 )  

     reciprocal axes: (cart. coord. in units 2 pi/alat)
               b(1) = (  1.000000  0.000000  0.000000 )  
               b(2) = (  0.000000  1.000000  0.000000 )  
               b(3) = (  0.000000  0.000000  1.000000 )  


     PseudoPot. # 1 for Al read from file:
     /home/ben/espresso/pp/Al.pbe-nl-kjpaw_psl.1.0.0.UPF
     MD5 check sum: 339dbea23cf3ab9a065ad45c0f9085d7
     Pseudo is Projector augmented-wave + core cor, Zval =  3.0
     Generated using "atomic" code by A. Dal Corso  v.5.1
     Shape of augmentation charge: PSQ
     Using radial grid of 1135 points,  4 beta functions with: 
                l(1) =   0
                l(2) =   0
                l(3) =   1
                l(4) =   1
     Q(r) pseudized with 0 coefficients 


     PseudoPot. # 2 for Al read from file:
     /home/ben/espresso/pp/Al.pbe-nl-kjpaw_psl.1.0.0.UPF
     MD5 check sum: 339dbea23cf3ab9a065ad45c0f9085d7
     Pseudo is Projector augmented-wave + core cor, Zval =  3.0
     Generated using "atomic" code by A. Dal Corso  v.5.1
     Shape of augmentation charge: PSQ
     Using radial grid of 1135 points,  4 beta functions with: 
                l(1) =   0
                l(2) =   0
                l(3) =   1
                l(4) =   1
     Q(r) pseudized with 0 coefficients 


     PseudoPot. # 3 for Al read from file:
     /home/ben/espresso/pp/Al.pbe-nl-kjpaw_psl.1.0.0.UPF
     MD5 check sum: 339dbea23cf3ab9a065ad45c0f9085d7
     Pseudo is Projector augmented-wave + core cor, Zval =  3.0
     Generated using "atomic" code by A. Dal Corso  v.5.1
     Shape of augmentation charge: PSQ
     Using radial grid of 1135 points,  4 beta functions with: 
                l(1) =   0
                l(2) =   0
                l(3) =   1
                l(4) =   1
     Q(r) pseudized with 0 coefficients 


     PseudoPot. # 4 for Al read from file:
     /home/ben/espresso/pp/Al.pbe-nl-kjpaw_psl.1.0.0.UPF
     MD5 check sum: 339dbea23cf3ab9a065ad45c0f9085d7
     Pseudo is Projector augmented-wave + core cor, Zval =  3.0
     Generated using "atomic" code by A. Dal Corso  v.5.1
     Shape of augmentation charge: PSQ
     Using radial grid of 1135 points,  4 beta functions with: 
                l(1) =   0
                l(2) =   0
                l(3) =   1
                l(4) =   1
     Q(r) pseudized with 0 coefficients 


     atomic species   valence    mass     pseudopotential
        Al1            3.00    26.98200     Al( 1.00)
        Al2            3.00    26.98200     Al( 1.00)
        Al3            3.00    26.98200     Al( 1.00)
        Al4            3.00    26.98200     Al( 1.00)

     No symmetry found



   Cartesian axes

     site n.     atom                  positions (alat units)
         1           Al1 tau(   1) = (   0.9998063   0.0000564   0.0004034  )
         2           Al2 tau(   2) = (   0.5004719   0.4988737   0.0004169  )
         3           Al3 tau(   3) = (   0.4994494   0.0001808   0.5017519  )
         4           Al4 tau(   4) = (   0.9998814   0.5012967   0.5010890  )

     number of k points=    63  Marzari-Vanderbilt smearing, width (Ry)=  0.0200
                       cart. coord. in units 2pi/alat
        k(    1) = (   0.1000000   0.1000000   0.1000000), wk =   0.0320000
        k(    2) = (   0.1000000   0.1000000   0.3000000), wk =   0.0320000
        k(    3) = (   0.1000000   0.1000000  -0.5000000), wk =   0.0320000
        k(    4) = (   0.1000000   0.3000000   0.3000000), wk =   0.0320000
        k(    5) = (   0.1000000   0.3000000  -0.5000000), wk =   0.0320000
        k(    6) = (   0.1000000  -0.5000000  -0.5000000), wk =   0.0320000
        k(    7) = (   0.3000000   0.3000000   0.3000000), wk =   0.0320000
        k(    8) = (   0.3000000   0.3000000  -0.5000000), wk =   0.0320000
        k(    9) = (   0.3000000  -0.5000000  -0.5000000), wk =   0.0320000
        k(   10) = (  -0.5000000  -0.5000000  -0.5000000), wk =   0.0160000
        k(   11) = (  -0.1000000  -0.1000000   0.1000000), wk =   0.0320000
        k(   12) = (  -0.1000000   0.1000000  -0.1000000), wk =   0.0320000
        k(   13) = (   0.1000000  -0.1000000  -0.1000000), wk =   0.0320000
        k(   14) = (  -0.1000000  -0.1000000   0.3000000), wk =   0.0320000
        k(   15) = (  -0.1000000   0.1000000  -0.3000000), wk =   0.0320000
        k(   16) = (   0.1000000  -0.1000000  -0.3000000), wk =   0.0320000
        k(   17) = (   0.3000000  -0.1000000   0.1000000), wk =   0.0320000
        k(   18) = (  -0.3000000  -0.1000000  -0.1000000), wk =   0.0320000
        k(   19) = (   0.3000000   0.1000000  -0.1000000), wk =   0.0320000
        k(   20) = (  -0.3000000   0.1000000   0.1000000), wk =   0.0320000
        k(   21) = (  -0.1000000   0.3000000   0.1000000), wk =   0.0320000
        k(   22) = (  -0.1000000  -0.3000000  -0.1000000), wk =   0.0320000
        k(   23) = (   0.1000000   0.3000000  -0.1000000), wk =   0.0320000
        k(   24) = (   0.1000000  -0.3000000   0.1000000), wk =   0.0320000
        k(   25) = (  -0.1000000   0.1000000   0.5000000), wk =   0.0320000
        k(   26) = (  -0.5000000  -0.1000000   0.1000000), wk =   0.0320000
        k(   27) = (   0.5000000  -0.1000000  -0.1000000), wk =   0.0320000
        k(   28) = (  -0.1000000  -0.5000000   0.1000000), wk =   0.0320000
        k(   29) = (  -0.1000000   0.5000000  -0.1000000), wk =   0.0320000
        k(   30) = (  -0.1000000  -0.3000000   0.3000000), wk =   0.0320000
        k(   31) = (  -0.1000000   0.3000000  -0.3000000), wk =   0.0320000
        k(   32) = (   0.1000000  -0.3000000  -0.3000000), wk =   0.0320000
        k(   33) = (   0.3000000   0.1000000  -0.3000000), wk =   0.0320000
        k(   34) = (  -0.3000000  -0.1000000  -0.3000000), wk =   0.0320000
        k(   35) = (   0.3000000  -0.1000000   0.3000000), wk =   0.0320000
        k(   36) = (  -0.3000000   0.1000000   0.3000000), wk =   0.0320000
        k(   37) = (   0.3000000  -0.3000000   0.1000000), wk =   0.0320000
        k(   38) = (  -0.3000000  -0.3000000  -0.1000000), wk =   0.0320000
        k(   39) = (   0.3000000   0.3000000  -0.1000000), wk =   0.0320000
        k(   40) = (  -0.3000000   0.3000000   0.1000000), wk =   0.0320000
        k(   41) = (  -0.1000000   0.3000000   0.5000000), wk =   0.0320000
        k(   42) = (   0.3000000   0.1000000   0.5000000), wk =   0.0320000
        k(   43) = (   0.3000000  -0.1000000  -0.5000000), wk =   0.0320000
        k(   44) = (  -0.5000000  -0.3000000   0.1000000), wk =   0.0320000
        k(   45) = (   0.5000000  -0.3000000  -0.1000000), wk =   0.0320000
        k(   46) = (  -0.1000000  -0.5000000   0.3000000), wk =   0.0320000
        k(   47) = (  -0.1000000   0.5000000  -0.3000000), wk =   0.0320000
        k(   48) = (   0.3000000  -0.5000000   0.1000000), wk =   0.0320000
        k(   49) = (   0.3000000   0.5000000  -0.1000000), wk =   0.0320000
        k(   50) = (  -0.5000000   0.1000000   0.3000000), wk =   0.0320000
        k(   51) = (   0.5000000  -0.1000000   0.3000000), wk =   0.0320000
        k(   52) = (  -0.5000000   0.1000000   0.5000000), wk =   0.0320000
        k(   53) = (  -0.5000000   0.5000000   0.1000000), wk =   0.0320000
        k(   54) = (  -0.3000000  -0.3000000   0.3000000), wk =   0.0320000
        k(   55) = (  -0.3000000   0.3000000  -0.3000000), wk =   0.0320000
        k(   56) = (   0.3000000  -0.3000000  -0.3000000), wk =   0.0320000
        k(   57) = (  -0.3000000   0.3000000   0.5000000), wk =   0.0320000
        k(   58) = (  -0.5000000  -0.3000000   0.3000000), wk =   0.0320000
        k(   59) = (   0.5000000  -0.3000000  -0.3000000), wk =   0.0320000
        k(   60) = (  -0.3000000  -0.5000000   0.3000000), wk =   0.0320000
        k(   61) = (  -0.3000000   0.5000000  -0.3000000), wk =   0.0320000
        k(   62) = (  -0.5000000   0.3000000   0.5000000), wk =   0.0320000
        k(   63) = (  -0.5000000   0.5000000   0.3000000), wk =   0.0320000

     Dense  grid:    21247 G-vectors     FFT dimensions: (  36,  36,  36)

     Smooth grid:    12533 G-vectors     FFT dimensions: (  30,  30,  30)

     Estimated max dynamical RAM per process >       9.70Mb

     Estimated total allocated dynamical RAM >      38.81Mb

     Initial potential from superposition of free atoms

     starting charge   11.99084, renormalised to   12.00000
     Starting wfc are   16 randomized atomic wfcs
     Checking if some PAW data can be deallocated... 

     total cpu time spent up to now is        2.3 secs

     per-process dynamical memory:    16.8 Mb

     Self-consistent Calculation

     iteration #  1     ecut=    35.00 Ry     beta=0.30
     Davidson diagonalization with overlap
     ethr =  1.00E-02,  avg # of iterations =  3.1

     Threshold (ethr) on eigenvalues was too large:
     Diagonalizing with lowered threshold

     Davidson diagonalization with overlap
     ethr =  1.95E-04,  avg # of iterations =  3.6

     total cpu time spent up to now is        8.8 secs

     total energy              =    -158.00347959 Ry
     Harris-Foulkes estimate   =    -158.00588018 Ry
     estimated scf accuracy    <       0.02272676 Ry

     iteration #  2     ecut=    35.00 Ry     beta=0.30
     Davidson diagonalization with overlap
     ethr =  1.89E-04,  avg # of iterations =  1.0

     total cpu time spent up to now is       13.2 secs

     total energy              =    -157.99911864 Ry
     Harris-Foulkes estimate   =    -158.00361972 Ry
     estimated scf accuracy    <       0.01412565 Ry

     iteration #  3     ecut=    35.00 Ry     beta=0.30
     Davidson diagonalization with overlap
     ethr =  1.18E-04,  avg # of iterations =  1.7

     total cpu time spent up to now is       16.1 secs

     total energy              =    -157.99939209 Ry
     Harris-Foulkes estimate   =    -157.99945026 Ry
     estimated scf accuracy    <       0.00002808 Ry

     iteration #  4     ecut=    35.00 Ry     beta=0.30
     Davidson diagonalization with overlap
     c_bands:  2 eigenvalues not converged
     ethr =  2.34E-07,  avg # of iterations =  5.3

     total cpu time spent up to now is       18.3 secs

     total energy              =    -157.99944634 Ry
     Harris-Foulkes estimate   =    -157.99946588 Ry
     estimated scf accuracy    <       0.00001376 Ry

     iteration #  5     ecut=    35.00 Ry     beta=0.30
     Davidson diagonalization with overlap
     ethr =  1.15E-07,  avg # of iterations =  1.4

     total cpu time spent up to now is       19.7 secs

     total energy              =    -157.99944190 Ry
     Harris-Foulkes estimate   =    -157.99944731 Ry
     estimated scf accuracy    <       0.00000422 Ry

     iteration #  6     ecut=    35.00 Ry     beta=0.30
     Davidson diagonalization with overlap
     ethr =  3.51E-08,  avg # of iterations =  2.0

     total cpu time spent up to now is       21.5 secs

     End of self-consistent calculation

          k = 0.1000 0.1000 0.1000 (  1542 PWs)   bands (ev):

    -2.9538   4.0537   4.0607   4.0676   7.7590   7.7669   7.7747  10.7806
    10.7894  10.7982

          k = 0.1000 0.1000 0.3000 (  1532 PWs)   bands (ev):

    -2.2303   1.3293   4.7390   4.7490   8.0442   8.0622   8.5625   8.5643
    11.3818  11.8253

          k = 0.1000 0.1000-0.5000 (  1556 PWs)   bands (ev):

    -0.8048  -0.7843   5.9863   5.9873   6.2326   6.2337   9.5347   9.5350
    10.2073  10.2079

          k = 0.1000 0.3000 0.3000 (  1565 PWs)   bands (ev):

    -1.5106   2.0266   2.0357   5.3269   5.5974   8.8136   8.8262   9.1760
    12.2043  12.2243

          k = 0.1000 0.3000-0.5000 (  1560 PWs)   bands (ev):

    -0.0921  -0.0716   3.4132   3.4341   6.7899   6.8122  10.1572  10.1807
    10.5059  10.5251

          k = 0.1000-0.5000-0.5000 (  1548 PWs)   bands (ev):

     1.3209   1.3230   1.3426   1.3449   8.1412   8.1440   8.1658   8.1687
    11.8500  11.8509

          k = 0.3000 0.3000 0.3000 (  1556 PWs)   bands (ev):

    -0.7943   2.7217   2.7292   2.7366   6.1802   6.1882   6.1962   9.5750
    13.0978  13.1037

          k = 0.3000 0.3000-0.5000 (  1546 PWs)   bands (ev):

     0.6172   0.6378   3.9964   3.9974   4.2522   4.2532   7.5411   7.5630
    14.1986  14.6063

          k = 0.3000-0.5000-0.5000 (  1564 PWs)   bands (ev):

     2.0230   2.0252   2.0448   2.0471   5.4970   5.4993   5.5195   5.5219
    15.6498  15.6659

          k =-0.5000-0.5000-0.5000 (  1568 PWs)   bands (ev):

     3.3239   3.3242   3.3248   3.3250   3.5480   3.5485   3.5488   3.5496
    19.3552  19.3573

          k =-0.1000-0.1000 0.1000 (  1542 PWs)   bands (ev):

    -2.9538   4.0551   4.0607   4.0662   7.7606   7.7669   7.7731  10.7824
    10.7894  10.7964

          k =-0.1000 0.1000-0.1000 (  1542 PWs)   bands (ev):

    -2.9538   4.0566   4.0607   4.0647   7.7623   7.7669   7.7715  10.7843
    10.7894  10.7945

          k = 0.1000-0.1000-0.1000 (  1542 PWs)   bands (ev):

    -2.9538   4.0558   4.0607   4.0655   7.7614   7.7669   7.7723  10.7833
    10.7894  10.7955

          k =-0.1000-0.1000 0.3000 (  1532 PWs)   bands (ev):

    -2.2303   1.3293   4.7390   4.7490   8.0443   8.0623   8.5624   8.5643
    11.3817  11.8258

          k =-0.1000 0.1000-0.3000 (  1532 PWs)   bands (ev):

    -2.2303   1.3293   4.7417   4.7463   8.0491   8.0574   8.5629   8.5638
    11.3818  11.8258

          k = 0.1000-0.1000-0.3000 (  1532 PWs)   bands (ev):

    -2.2303   1.3293   4.7417   4.7463   8.0490   8.0573   8.5630   8.5639
    11.3817  11.8267

          k = 0.3000-0.1000 0.1000 (  1532 PWs)   bands (ev):

    -2.2303   1.3292   4.7417   4.7463   8.0490   8.0574   8.5629   8.5638
    11.3818  11.8255

          k =-0.3000-0.1000-0.1000 (  1532 PWs)   bands (ev):

    -2.2303   1.3292   4.7397   4.7483   8.0456   8.0609   8.5626   8.5642
    11.3817  11.8241

          k = 0.3000 0.1000-0.1000 (  1532 PWs)   bands (ev):

    -2.2303   1.3292   4.7417   4.7463   8.0490   8.0574   8.5629   8.5638
    11.3819  11.8258

          k =-0.3000 0.1000 0.1000 (  1532 PWs)   bands (ev):

    -2.2303   1.3292   4.7397   4.7483   8.0456   8.0609   8.5626   8.5642
    11.3817  11.8271

          k =-0.1000 0.3000 0.1000 (  1532 PWs)   bands (ev):

    -2.2303   1.3292   4.7433   4.7447   8.0520   8.0544   8.5632   8.5635
    11.3818  11.8233

          k =-0.1000-0.3000-0.1000 (  1532 PWs)   bands (ev):

    -2.2303   1.3292   4.7415   4.7465   8.0488   8.0577   8.5629   8.5638
    11.3819  11.8226

          k = 0.1000 0.3000-0.1000 (  1532 PWs)   bands (ev):

    -2.2303   1.3292   4.7433   4.7447   8.0521   8.0544   8.5632   8.5635
    11.3818  11.8210

          k = 0.1000-0.3000 0.1000 (  1532 PWs)   bands (ev):

    -2.2303   1.3292   4.7415   4.7465   8.0488   8.0577   8.5629   8.5638
    11.3818  11.8220

          k =-0.1000 0.1000 0.5000 (  1556 PWs)   bands (ev):

    -0.8048  -0.7843   5.9866   5.9871   6.2328   6.2334   9.5348   9.5350
    10.2074  10.2078

          k =-0.5000-0.1000 0.1000 (  1556 PWs)   bands (ev):

    -0.7957  -0.7934   5.9872   5.9875   6.2324   6.2328   9.5350   9.5351
    10.2072  10.2077

          k = 0.5000-0.1000-0.1000 (  1556 PWs)   bands (ev):

    -0.7957  -0.7934   5.9872   5.9875   6.2325   6.2328   9.5349   9.5351
    10.2072  10.2076

          k =-0.1000-0.5000 0.1000 (  1556 PWs)   bands (ev):

    -0.7949  -0.7942   5.9874   5.9874   6.2325   6.2326   9.5350   9.5351
    10.2074  10.2075

          k =-0.1000 0.5000-0.1000 (  1556 PWs)   bands (ev):

    -0.7949  -0.7942   5.9874   5.9874   6.2326   6.2326   9.5350   9.5350
    10.2074  10.2075

          k =-0.1000-0.3000 0.3000 (  1565 PWs)   bands (ev):

    -1.5106   2.0287   2.0336   5.3269   5.5974   8.8164   8.8233   9.1761
    12.2090  12.2195

          k =-0.1000 0.3000-0.3000 (  1565 PWs)   bands (ev):

    -1.5106   2.0287   2.0336   5.3269   5.5974   8.8164   8.8233   9.1760
    12.2092  12.2200

          k = 0.1000-0.3000-0.3000 (  1565 PWs)   bands (ev):

    -1.5106   2.0266   2.0357   5.3269   5.5974   8.8135   8.8261   9.1761
    12.2053  12.2243

          k = 0.3000 0.1000-0.3000 (  1565 PWs)   bands (ev):

    -1.5106   2.0305   2.0319   5.3269   5.5974   8.8188   8.8208   9.1761
    12.2136  12.2157

          k =-0.3000-0.1000-0.3000 (  1565 PWs)   bands (ev):

    -1.5106   2.0285   2.0338   5.3269   5.5974   8.8161   8.8234   9.1763
    12.1677  12.2095

          k = 0.3000-0.1000 0.3000 (  1565 PWs)   bands (ev):

    -1.5106   2.0285   2.0338   5.3269   5.5974   8.8161   8.8234   9.1762
    12.2084  12.2185

          k =-0.3000 0.1000 0.3000 (  1565 PWs)   bands (ev):

    -1.5106   2.0305   2.0319   5.3269   5.5974   8.8187   8.8207   9.1763
    12.2132  12.2162

          k = 0.3000-0.3000 0.1000 (  1565 PWs)   bands (ev):

    -1.5106   2.0287   2.0336   5.3269   5.5974   8.8165   8.8233   9.1760
    12.2094  12.2196

          k =-0.3000-0.3000-0.1000 (  1565 PWs)   bands (ev):

    -1.5106   2.0258   2.0365   5.3269   5.5974   8.8125   8.8273   9.1760
    12.2036  12.2258

          k = 0.3000 0.3000-0.1000 (  1565 PWs)   bands (ev):

    -1.5106   2.0258   2.0365   5.3269   5.5974   8.8125   8.8273   9.1760
    12.2035  12.2255

          k =-0.3000 0.3000 0.1000 (  1565 PWs)   bands (ev):

    -1.5106   2.0287   2.0336   5.3269   5.5974   8.8165   8.8233   9.1760
    12.2091  12.2187

          k =-0.1000 0.3000 0.5000 (  1560 PWs)   bands (ev):

    -0.0921  -0.0716   3.4133   3.4341   6.7899   6.8121  10.1572  10.1806
    10.5059  10.5252

          k = 0.3000 0.1000 0.5000 (  1560 PWs)   bands (ev):

    -0.0921  -0.0716   3.4132   3.4341   6.7899   6.8122  10.1571  10.1806
    10.5059  10.5252

          k = 0.3000-0.1000-0.5000 (  1560 PWs)   bands (ev):

    -0.0921  -0.0716   3.4132   3.4341   6.7899   6.8122  10.1571  10.1806
    10.5060  10.5252

          k =-0.5000-0.3000 0.1000 (  1560 PWs)   bands (ev):

    -0.0830  -0.0807   3.4225   3.4249   6.7997   6.8023  10.1677  10.1703
    10.5144  10.5166

          k = 0.5000-0.3000-0.1000 (  1560 PWs)   bands (ev):

    -0.0830  -0.0807   3.4225   3.4249   6.7998   6.8023  10.1675  10.1701
    10.5145  10.5168

          k =-0.1000-0.5000 0.3000 (  1560 PWs)   bands (ev):

    -0.0822  -0.0815   3.4233   3.4241   6.8006   6.8014  10.1685  10.1694
    10.5152  10.5159

          k =-0.1000 0.5000-0.3000 (  1560 PWs)   bands (ev):

    -0.0822  -0.0815   3.4233   3.4241   6.8006   6.8014  10.1686  10.1694
    10.5151  10.5158

          k = 0.3000-0.5000 0.1000 (  1560 PWs)   bands (ev):

    -0.0822  -0.0815   3.4233   3.4240   6.8006   6.8014  10.1685  10.1694
    10.5152  10.5159

          k = 0.3000 0.5000-0.1000 (  1560 PWs)   bands (ev):

    -0.0822  -0.0815   3.4233   3.4240   6.8006   6.8014  10.1685  10.1693
    10.5152  10.5160

          k =-0.5000 0.1000 0.3000 (  1560 PWs)   bands (ev):

    -0.0830  -0.0807   3.4225   3.4249   6.7997   6.8022  10.1674  10.1701
    10.5146  10.5168

          k = 0.5000-0.1000 0.3000 (  1560 PWs)   bands (ev):

    -0.0830  -0.0807   3.4225   3.4249   6.7997   6.8022  10.1676  10.1703
    10.5144  10.5166

          k =-0.5000 0.1000 0.5000 (  1548 PWs)   bands (ev):

     1.3210   1.3238   1.3417   1.3449   8.1416   8.1450   8.1646   8.1685
    11.8488  11.8517

          k =-0.5000 0.5000 0.1000 (  1548 PWs)   bands (ev):

     1.3272   1.3302   1.3354   1.3385   8.1476   8.1515   8.1583   8.1623
    11.8586  11.8610

          k =-0.3000-0.3000 0.3000 (  1556 PWs)   bands (ev):

    -0.7943   2.7233   2.7292   2.7351   6.1819   6.1882   6.1946   9.5750
    13.0993  13.1077

          k =-0.3000 0.3000-0.3000 (  1556 PWs)   bands (ev):

    -0.7943   2.7248   2.7292   2.7335   6.1835   6.1882   6.1929   9.5750
    13.1006  13.1052

          k = 0.3000-0.3000-0.3000 (  1556 PWs)   bands (ev):

    -0.7943   2.7240   2.7292   2.7344   6.1826   6.1882   6.1938   9.5750
    13.0993  13.1023

          k =-0.3000 0.3000 0.5000 (  1546 PWs)   bands (ev):

     0.6172   0.6378   3.9967   3.9972   4.2523   4.2529   7.5411   7.5630
    14.1987  14.1991

          k =-0.5000-0.3000 0.3000 (  1546 PWs)   bands (ev):

     0.6263   0.6286   3.9973   3.9975   4.2520   4.2524   7.5509   7.5534
    14.6053  14.6063

          k = 0.5000-0.3000-0.3000 (  1546 PWs)   bands (ev):

     0.6263   0.6286   3.9972   3.9975   4.2520   4.2524   7.5509   7.5534
    14.1990  14.1992

          k =-0.3000-0.5000 0.3000 (  1546 PWs)   bands (ev):

     0.6271   0.6278   3.9974   3.9975   4.2521   4.2522   7.5517   7.5525
    14.6060  14.6062

          k =-0.3000 0.5000-0.3000 (  1546 PWs)   bands (ev):

     0.6271   0.6278   3.9974   3.9974   4.2521   4.2522   7.5517   7.5525
    14.1992  14.6063

          k =-0.5000 0.3000 0.5000 (  1564 PWs)   bands (ev):

     2.0231   2.0260   2.0438   2.0471   5.4972   5.5001   5.5186   5.5219
    15.6500  15.6615

          k =-0.5000 0.5000 0.3000 (  1564 PWs)   bands (ev):

     2.0294   2.0324   2.0375   2.0406   5.5037   5.5068   5.5121   5.5154
    15.6578  15.6627

     the Fermi energy is     8.0752 ev

!    total energy              =    -157.99944265 Ry
     Harris-Foulkes estimate   =    -157.99944268 Ry
     estimated scf accuracy    <       0.00000015 Ry

     total all-electron energy =     -1942.570570 Ry

     The total energy is the sum of the following terms:

     one-electron contribution =      12.68730692 Ry
     hartree contribution      =       0.02387873 Ry
     xc contribution           =     -10.36774790 Ry
     ewald contribution        =     -21.63229995 Ry
     one-center paw contrib.   =    -138.70877323 Ry
     smearing contrib. (-TS)   =      -0.00180721 Ry

     convergence has been achieved in   6 iterations

     Forces acting on atoms (Ry/au):

     atom    1 type  1   force =     0.00010962   -0.00002010    0.00068497
     atom    2 type  2   force =    -0.00031873    0.00051502    0.00068116
     atom    3 type  3   force =     0.00012629   -0.00001183   -0.00084345
     atom    4 type  4   force =     0.00008282   -0.00048309   -0.00052267

     Total force =     0.001598     Total SCF correction =     0.000098


     entering subroutine stress ...

          total   stress  (Ry/bohr**3)                   (kbar)     P=    0.82
   0.00000552  -0.00000003  -0.00000004          0.81     -0.00     -0.01
  -0.00000003   0.00000568   0.00000012         -0.00      0.84      0.02
  -0.00000004   0.00000012   0.00000541         -0.01      0.02      0.80


     Writing output data file template.save

     init_run     :      1.24s CPU      1.27s WALL (       1 calls)
     electrons    :     18.87s CPU     19.20s WALL (       1 calls)
     forces       :      0.16s CPU      0.17s WALL (       1 calls)
     stress       :      0.54s CPU      0.54s WALL (       1 calls)

     Called by init_run:
     wfcinit      :      0.75s CPU      0.76s WALL (       1 calls)
     potinit      :      0.10s CPU      0.11s WALL (       1 calls)

     Called by electrons:
     c_bands      :     14.90s CPU     15.19s WALL (       7 calls)
     sum_band     :      2.92s CPU      2.97s WALL (       7 calls)
     v_of_rho     :      0.13s CPU      0.13s WALL (       7 calls)
     newd         :      0.15s CPU      0.15s WALL (       7 calls)
     PAW_pot      :      0.76s CPU      0.76s WALL (       7 calls)
     mix_rho      :      0.08s CPU      0.08s WALL (       7 calls)

     Called by c_bands:
     init_us_2    :      0.44s CPU      0.37s WALL (    1071 calls)
     cegterg      :     14.47s CPU     14.73s WALL (     441 calls)

     Called by sum_band:
     sum_band:bec :      0.00s CPU      0.01s WALL (     441 calls)
     addusdens    :      0.19s CPU      0.18s WALL (       7 calls)

     Called by *egterg:
     h_psi        :     13.40s CPU     13.64s WALL (    1645 calls)
     s_psi        :      0.25s CPU      0.25s WALL (    1645 calls)
     g_psi        :      0.03s CPU      0.03s WALL (    1141 calls)
     cdiaghg      :      0.42s CPU      0.50s WALL (    1519 calls)

     Called by h_psi:
     h_psi:pot    :     13.38s CPU     13.61s WALL (    1645 calls)
     h_psi:calbec :      0.37s CPU      0.36s WALL (    1645 calls)
     vloc_psi     :     12.77s CPU     12.97s WALL (    1645 calls)
     add_vuspsi   :      0.24s CPU      0.27s WALL (    1645 calls)

     General routines
     calbec       :      0.48s CPU      0.53s WALL (    2401 calls)
     fft          :      0.12s CPU      0.13s WALL (     137 calls)
     ffts         :      0.06s CPU      0.06s WALL (      79 calls)
     fftw         :     14.47s CPU     14.70s WALL (   29754 calls)
     interpolate  :      0.02s CPU      0.02s WALL (      14 calls)
     davcio       :      0.00s CPU      0.00s WALL (      63 calls)

     Parallel routines
     fft_scatter  :      3.03s CPU      2.92s WALL (   29970 calls)

     PWSCF        :    21.88s CPU        22.38s WALL


   This run was terminated on:  15:51:16   9Jun2017            

=------------------------------------------------------------------------------=
   JOB DONE.
=------------------------------------------------------------------------------=
