
     Program PWSCF v.6.0 (svn rev. 13079) starts on  9Jun2017 at 15:52:45 

     This program is part of the open-source Quantum ESPRESSO suite
     for quantum simulation of materials; please cite
         "P. Giannozzi et al., J. Phys.:Condens. Matter 21 395502 (2009);
          URL http://www.quantum-espresso.org", 
     in publications or presentations arising from this work. More details at
     http://www.quantum-espresso.org/quote

     Parallel version (MPI), running on     4 processors
     R & G space division:  proc/nbgrp/npool/nimage =       4
     Waiting for input...
     Reading input from standard input
Warning: card &IONS ignored
Warning: card ION_DYNAMICS='BFGS', ignored
Warning: card / ignored
Warning: card &CELL ignored
Warning: card CELL_DYNAMICS='BFGS', ignored
Warning: card PRESS = 0.0, ignored
Warning: card CELL_FACTOR = 2.0, ignored
Warning: card / ignored

     Current dimensions of program PWSCF are:
     Max number of different atomic species (ntypx) = 10
     Max number of k-points (npk) =  40000
     Max angular momentum in pseudopotentials (lmaxx) =  3
               file Al.pbe-nl-kjpaw_psl.1.0.0.UPF: wavefunction(s)  3S 3P renormalized
               file Al.pbe-nl-kjpaw_psl.1.0.0.UPF: wavefunction(s)  3S 3P renormalized
               file Al.pbe-nl-kjpaw_psl.1.0.0.UPF: wavefunction(s)  3S 3P renormalized
               file Al.pbe-nl-kjpaw_psl.1.0.0.UPF: wavefunction(s)  3S 3P renormalized

     Subspace diagonalization in iterative solution of the eigenvalue problem:
     a serial algorithm will be used


     Parallelization info
     --------------------
     sticks:   dense  smooth     PW     G-vecs:    dense   smooth      PW
     Min         232     164     49                 5310     3132     527
     Max         234     165     50                 5313     3135     528
     Sum         933     657    197                21247    12533    2109



     bravais-lattice index     =            0
     lattice parameter (alat)  =       7.6300  a.u.
     unit-cell volume          =     444.1949 (a.u.)^3
     number of atoms/cell      =            4
     number of atomic types    =            4
     number of electrons       =        12.00
     number of Kohn-Sham states=           10
     kinetic-energy cutoff     =      35.0000  Ry
     charge density cutoff     =     200.0000  Ry
     convergence threshold     =      1.0E-06
     mixing beta               =       0.3000
     number of iterations used =           10  local-TF  mixing
     Exchange-correlation      =  SLA  PW   PBX  PBC ( 1  4  3  4 0 0)

     celldm(1)=   7.630000  celldm(2)=   0.000000  celldm(3)=   0.000000
     celldm(4)=   0.000000  celldm(5)=   0.000000  celldm(6)=   0.000000

     crystal axes: (cart. coord. in units of alat)
               a(1) = (   1.000000   0.000000   0.000000 )  
               a(2) = (   0.000000   1.000000   0.000000 )  
               a(3) = (   0.000000   0.000000   1.000000 )  

     reciprocal axes: (cart. coord. in units 2 pi/alat)
               b(1) = (  1.000000  0.000000  0.000000 )  
               b(2) = (  0.000000  1.000000  0.000000 )  
               b(3) = (  0.000000  0.000000  1.000000 )  


     PseudoPot. # 1 for Al read from file:
     /home/ben/espresso/pp/Al.pbe-nl-kjpaw_psl.1.0.0.UPF
     MD5 check sum: 339dbea23cf3ab9a065ad45c0f9085d7
     Pseudo is Projector augmented-wave + core cor, Zval =  3.0
     Generated using "atomic" code by A. Dal Corso  v.5.1
     Shape of augmentation charge: PSQ
     Using radial grid of 1135 points,  4 beta functions with: 
                l(1) =   0
                l(2) =   0
                l(3) =   1
                l(4) =   1
     Q(r) pseudized with 0 coefficients 


     PseudoPot. # 2 for Al read from file:
     /home/ben/espresso/pp/Al.pbe-nl-kjpaw_psl.1.0.0.UPF
     MD5 check sum: 339dbea23cf3ab9a065ad45c0f9085d7
     Pseudo is Projector augmented-wave + core cor, Zval =  3.0
     Generated using "atomic" code by A. Dal Corso  v.5.1
     Shape of augmentation charge: PSQ
     Using radial grid of 1135 points,  4 beta functions with: 
                l(1) =   0
                l(2) =   0
                l(3) =   1
                l(4) =   1
     Q(r) pseudized with 0 coefficients 


     PseudoPot. # 3 for Al read from file:
     /home/ben/espresso/pp/Al.pbe-nl-kjpaw_psl.1.0.0.UPF
     MD5 check sum: 339dbea23cf3ab9a065ad45c0f9085d7
     Pseudo is Projector augmented-wave + core cor, Zval =  3.0
     Generated using "atomic" code by A. Dal Corso  v.5.1
     Shape of augmentation charge: PSQ
     Using radial grid of 1135 points,  4 beta functions with: 
                l(1) =   0
                l(2) =   0
                l(3) =   1
                l(4) =   1
     Q(r) pseudized with 0 coefficients 


     PseudoPot. # 4 for Al read from file:
     /home/ben/espresso/pp/Al.pbe-nl-kjpaw_psl.1.0.0.UPF
     MD5 check sum: 339dbea23cf3ab9a065ad45c0f9085d7
     Pseudo is Projector augmented-wave + core cor, Zval =  3.0
     Generated using "atomic" code by A. Dal Corso  v.5.1
     Shape of augmentation charge: PSQ
     Using radial grid of 1135 points,  4 beta functions with: 
                l(1) =   0
                l(2) =   0
                l(3) =   1
                l(4) =   1
     Q(r) pseudized with 0 coefficients 


     atomic species   valence    mass     pseudopotential
        Al1            3.00    26.98200     Al( 1.00)
        Al2            3.00    26.98200     Al( 1.00)
        Al3            3.00    26.98200     Al( 1.00)
        Al4            3.00    26.98200     Al( 1.00)

     No symmetry found



   Cartesian axes

     site n.     atom                  positions (alat units)
         1           Al1 tau(   1) = (   0.9976612   0.0006805   0.0048692  )
         2           Al2 tau(   2) = (   0.5056969   0.4864031   0.0050329  )
         3           Al3 tau(   3) = (   0.4933536   0.0021824   0.5211483  )
         4           Al4 tau(   4) = (   0.9985684   0.5156529   0.5131467  )

     number of k points=    63  Marzari-Vanderbilt smearing, width (Ry)=  0.0200
                       cart. coord. in units 2pi/alat
        k(    1) = (   0.1000000   0.1000000   0.1000000), wk =   0.0320000
        k(    2) = (   0.1000000   0.1000000   0.3000000), wk =   0.0320000
        k(    3) = (   0.1000000   0.1000000  -0.5000000), wk =   0.0320000
        k(    4) = (   0.1000000   0.3000000   0.3000000), wk =   0.0320000
        k(    5) = (   0.1000000   0.3000000  -0.5000000), wk =   0.0320000
        k(    6) = (   0.1000000  -0.5000000  -0.5000000), wk =   0.0320000
        k(    7) = (   0.3000000   0.3000000   0.3000000), wk =   0.0320000
        k(    8) = (   0.3000000   0.3000000  -0.5000000), wk =   0.0320000
        k(    9) = (   0.3000000  -0.5000000  -0.5000000), wk =   0.0320000
        k(   10) = (  -0.5000000  -0.5000000  -0.5000000), wk =   0.0160000
        k(   11) = (  -0.1000000  -0.1000000   0.1000000), wk =   0.0320000
        k(   12) = (  -0.1000000   0.1000000  -0.1000000), wk =   0.0320000
        k(   13) = (   0.1000000  -0.1000000  -0.1000000), wk =   0.0320000
        k(   14) = (  -0.1000000  -0.1000000   0.3000000), wk =   0.0320000
        k(   15) = (  -0.1000000   0.1000000  -0.3000000), wk =   0.0320000
        k(   16) = (   0.1000000  -0.1000000  -0.3000000), wk =   0.0320000
        k(   17) = (   0.3000000  -0.1000000   0.1000000), wk =   0.0320000
        k(   18) = (  -0.3000000  -0.1000000  -0.1000000), wk =   0.0320000
        k(   19) = (   0.3000000   0.1000000  -0.1000000), wk =   0.0320000
        k(   20) = (  -0.3000000   0.1000000   0.1000000), wk =   0.0320000
        k(   21) = (  -0.1000000   0.3000000   0.1000000), wk =   0.0320000
        k(   22) = (  -0.1000000  -0.3000000  -0.1000000), wk =   0.0320000
        k(   23) = (   0.1000000   0.3000000  -0.1000000), wk =   0.0320000
        k(   24) = (   0.1000000  -0.3000000   0.1000000), wk =   0.0320000
        k(   25) = (  -0.1000000   0.1000000   0.5000000), wk =   0.0320000
        k(   26) = (  -0.5000000  -0.1000000   0.1000000), wk =   0.0320000
        k(   27) = (   0.5000000  -0.1000000  -0.1000000), wk =   0.0320000
        k(   28) = (  -0.1000000  -0.5000000   0.1000000), wk =   0.0320000
        k(   29) = (  -0.1000000   0.5000000  -0.1000000), wk =   0.0320000
        k(   30) = (  -0.1000000  -0.3000000   0.3000000), wk =   0.0320000
        k(   31) = (  -0.1000000   0.3000000  -0.3000000), wk =   0.0320000
        k(   32) = (   0.1000000  -0.3000000  -0.3000000), wk =   0.0320000
        k(   33) = (   0.3000000   0.1000000  -0.3000000), wk =   0.0320000
        k(   34) = (  -0.3000000  -0.1000000  -0.3000000), wk =   0.0320000
        k(   35) = (   0.3000000  -0.1000000   0.3000000), wk =   0.0320000
        k(   36) = (  -0.3000000   0.1000000   0.3000000), wk =   0.0320000
        k(   37) = (   0.3000000  -0.3000000   0.1000000), wk =   0.0320000
        k(   38) = (  -0.3000000  -0.3000000  -0.1000000), wk =   0.0320000
        k(   39) = (   0.3000000   0.3000000  -0.1000000), wk =   0.0320000
        k(   40) = (  -0.3000000   0.3000000   0.1000000), wk =   0.0320000
        k(   41) = (  -0.1000000   0.3000000   0.5000000), wk =   0.0320000
        k(   42) = (   0.3000000   0.1000000   0.5000000), wk =   0.0320000
        k(   43) = (   0.3000000  -0.1000000  -0.5000000), wk =   0.0320000
        k(   44) = (  -0.5000000  -0.3000000   0.1000000), wk =   0.0320000
        k(   45) = (   0.5000000  -0.3000000  -0.1000000), wk =   0.0320000
        k(   46) = (  -0.1000000  -0.5000000   0.3000000), wk =   0.0320000
        k(   47) = (  -0.1000000   0.5000000  -0.3000000), wk =   0.0320000
        k(   48) = (   0.3000000  -0.5000000   0.1000000), wk =   0.0320000
        k(   49) = (   0.3000000   0.5000000  -0.1000000), wk =   0.0320000
        k(   50) = (  -0.5000000   0.1000000   0.3000000), wk =   0.0320000
        k(   51) = (   0.5000000  -0.1000000   0.3000000), wk =   0.0320000
        k(   52) = (  -0.5000000   0.1000000   0.5000000), wk =   0.0320000
        k(   53) = (  -0.5000000   0.5000000   0.1000000), wk =   0.0320000
        k(   54) = (  -0.3000000  -0.3000000   0.3000000), wk =   0.0320000
        k(   55) = (  -0.3000000   0.3000000  -0.3000000), wk =   0.0320000
        k(   56) = (   0.3000000  -0.3000000  -0.3000000), wk =   0.0320000
        k(   57) = (  -0.3000000   0.3000000   0.5000000), wk =   0.0320000
        k(   58) = (  -0.5000000  -0.3000000   0.3000000), wk =   0.0320000
        k(   59) = (   0.5000000  -0.3000000  -0.3000000), wk =   0.0320000
        k(   60) = (  -0.3000000  -0.5000000   0.3000000), wk =   0.0320000
        k(   61) = (  -0.3000000   0.5000000  -0.3000000), wk =   0.0320000
        k(   62) = (  -0.5000000   0.3000000   0.5000000), wk =   0.0320000
        k(   63) = (  -0.5000000   0.5000000   0.3000000), wk =   0.0320000

     Dense  grid:    21247 G-vectors     FFT dimensions: (  36,  36,  36)

     Smooth grid:    12533 G-vectors     FFT dimensions: (  30,  30,  30)

     Estimated max dynamical RAM per process >       9.70Mb

     Estimated total allocated dynamical RAM >      38.81Mb

     Initial potential from superposition of free atoms

     starting charge   11.99084, renormalised to   12.00000
     Starting wfc are   16 randomized atomic wfcs
     Checking if some PAW data can be deallocated... 

     total cpu time spent up to now is        2.5 secs

     per-process dynamical memory:    16.8 Mb

     Self-consistent Calculation

     iteration #  1     ecut=    35.00 Ry     beta=0.30
     Davidson diagonalization with overlap
     ethr =  1.00E-02,  avg # of iterations =  3.1

     Threshold (ethr) on eigenvalues was too large:
     Diagonalizing with lowered threshold

     Davidson diagonalization with overlap
     ethr =  2.04E-04,  avg # of iterations =  4.1

     total cpu time spent up to now is       10.1 secs

     total energy              =    -158.00201599 Ry
     Harris-Foulkes estimate   =    -158.00461730 Ry
     estimated scf accuracy    <       0.02407629 Ry

     iteration #  2     ecut=    35.00 Ry     beta=0.30
     Davidson diagonalization with overlap
     ethr =  2.01E-04,  avg # of iterations =  1.2

     total cpu time spent up to now is       14.6 secs

     total energy              =    -157.99726230 Ry
     Harris-Foulkes estimate   =    -158.00218154 Ry
     estimated scf accuracy    <       0.01491852 Ry

     iteration #  3     ecut=    35.00 Ry     beta=0.30
     Davidson diagonalization with overlap
     ethr =  1.24E-04,  avg # of iterations =  1.4

     total cpu time spent up to now is       17.9 secs

     total energy              =    -157.99771854 Ry
     Harris-Foulkes estimate   =    -157.99776849 Ry
     estimated scf accuracy    <       0.00003614 Ry

     iteration #  4     ecut=    35.00 Ry     beta=0.30
     Davidson diagonalization with overlap
     ethr =  3.01E-07,  avg # of iterations =  7.6

     total cpu time spent up to now is       20.8 secs

     total energy              =    -157.99782711 Ry
     Harris-Foulkes estimate   =    -157.99782961 Ry
     estimated scf accuracy    <       0.00005169 Ry

     iteration #  5     ecut=    35.00 Ry     beta=0.30
     Davidson diagonalization with overlap
     ethr =  3.01E-07,  avg # of iterations =  1.0

     total cpu time spent up to now is       22.2 secs

     total energy              =    -157.99777275 Ry
     Harris-Foulkes estimate   =    -157.99782717 Ry
     estimated scf accuracy    <       0.00004757 Ry

     iteration #  6     ecut=    35.00 Ry     beta=0.30
     Davidson diagonalization with overlap
     ethr =  3.01E-07,  avg # of iterations =  2.3

     total cpu time spent up to now is       23.8 secs

     total energy              =    -157.99778670 Ry
     Harris-Foulkes estimate   =    -157.99778773 Ry
     estimated scf accuracy    <       0.00000539 Ry

     iteration #  7     ecut=    35.00 Ry     beta=0.30
     Davidson diagonalization with overlap
     ethr =  4.49E-08,  avg # of iterations =  1.0

     total cpu time spent up to now is       25.3 secs

     total energy              =    -157.99778532 Ry
     Harris-Foulkes estimate   =    -157.99778689 Ry
     estimated scf accuracy    <       0.00000247 Ry

     iteration #  8     ecut=    35.00 Ry     beta=0.30
     Davidson diagonalization with overlap
     ethr =  2.06E-08,  avg # of iterations =  2.2

     total cpu time spent up to now is       27.1 secs

     End of self-consistent calculation

          k = 0.1000 0.1000 0.1000 (  1542 PWs)   bands (ev):

    -2.9582   3.9709   4.0601   4.1404   7.6630   7.7629   7.8539  10.6841
    10.7816  10.8978

          k = 0.1000 0.1000 0.3000 (  1532 PWs)   bands (ev):

    -2.2367   1.3307   4.6761   4.7977   7.9371   8.1526   8.5530   8.5760
    11.3724  11.7671

          k = 0.1000 0.1000-0.5000 (  1556 PWs)   bands (ev):

    -0.9201  -0.6733   5.8746   5.9673   6.2457   6.3396   9.4931   9.5273
    10.2060  10.2396

          k = 0.1000 0.3000 0.3000 (  1565 PWs)   bands (ev):

    -1.5171   1.9734   2.0836   5.3217   5.5949   8.7394   8.8918   9.1708
    12.0673  12.1770

          k = 0.1000 0.3000-0.5000 (  1560 PWs)   bands (ev):

    -0.2079   0.0391   3.2953   3.5462   6.6644   6.9327  10.0195  10.2945
    10.4072  10.6328

          k = 0.1000-0.5000-0.5000 (  1548 PWs)   bands (ev):

     1.1803   1.2182   1.4541   1.4696   7.9795   8.0278   8.2896   8.3106
    11.7158  11.7473

          k = 0.3000 0.3000 0.3000 (  1556 PWs)   bands (ev):

    -0.8010   2.6335   2.7287   2.8142   6.0904   6.1853   6.2850   9.5747
    12.9919  13.0957

          k = 0.3000 0.3000-0.5000 (  1546 PWs)   bands (ev):

     0.5010   0.7485   3.8916   3.9816   4.2644   4.3530   7.4177   7.6816
    14.1139  14.1877

          k = 0.3000-0.5000-0.5000 (  1564 PWs)   bands (ev):

     1.8818   1.9196   2.1560   2.1712   5.3520   5.3921   5.6359   5.6517
    15.4919  15.5358

          k =-0.5000-0.5000-0.5000 (  1568 PWs)   bands (ev):

     3.1976   3.2313   3.2829   3.3116   3.5612   3.5892   3.6313   3.6712
    19.0774  19.1412

          k =-0.1000-0.1000 0.1000 (  1542 PWs)   bands (ev):

    -2.9583   3.9880   4.0596   4.1220   7.6838   7.7641   7.8348  10.7064
    10.7798  10.8752

          k =-0.1000 0.1000-0.1000 (  1542 PWs)   bands (ev):

    -2.9583   4.0051   4.0590   4.1042   7.7046   7.7634   7.8162  10.7238
    10.7876  10.8486

          k = 0.1000-0.1000-0.1000 (  1542 PWs)   bands (ev):

    -2.9583   3.9976   4.0564   4.1155   7.6929   7.7622   7.8255  10.7154
    10.7831  10.8639

          k =-0.1000-0.1000 0.3000 (  1532 PWs)   bands (ev):

    -2.2367   1.3311   4.6750   4.7968   7.9436   8.1608   8.5465   8.5706
    11.3699  11.8023

          k =-0.1000 0.1000-0.3000 (  1532 PWs)   bands (ev):

    -2.2367   1.3309   4.7074   4.7629   8.0009   8.1000   8.5549   8.5652
    11.3706  11.7950

          k = 0.1000-0.1000-0.3000 (  1532 PWs)   bands (ev):

    -2.2367   1.3308   4.7081   4.7638   7.9891   8.0863   8.5674   8.5776
    11.3678  11.7807

          k = 0.3000-0.1000 0.1000 (  1532 PWs)   bands (ev):

    -2.2350   1.3236   4.7124   4.7690   7.9940   8.0945   8.5575   8.5689
    11.3845  11.7624

          k =-0.3000-0.1000-0.1000 (  1532 PWs)   bands (ev):

    -2.2349   1.3231   4.6904   4.7939   7.9523   8.1370   8.5509   8.5710
    11.3692  11.7266

          k = 0.3000 0.1000-0.1000 (  1532 PWs)   bands (ev):

    -2.2350   1.3233   4.7129   4.7695   7.9932   8.0937   8.5567   8.5678
    11.3875  11.7753

          k =-0.3000 0.1000 0.1000 (  1532 PWs)   bands (ev):

    -2.2350   1.3237   4.6895   4.7932   7.9527   8.1370   8.5511   8.5721
    11.3623  11.7852

          k =-0.1000 0.3000 0.1000 (  1532 PWs)   bands (ev):

    -2.2350   1.3231   4.7329   4.7501   8.0291   8.0579   8.5566   8.5658
    11.3753  11.7098

          k =-0.1000-0.3000-0.1000 (  1532 PWs)   bands (ev):

    -2.2350   1.3227   4.7119   4.7727   7.9901   8.0986   8.5530   8.5655
    11.3875  11.6894

          k = 0.1000 0.3000-0.1000 (  1532 PWs)   bands (ev):

    -2.2350   1.3229   4.7332   4.7495   8.0317   8.0606   8.5590   8.5624
    11.3799  11.6560

          k = 0.1000-0.3000 0.1000 (  1532 PWs)   bands (ev):

    -2.2351   1.3233   4.7104   4.7713   7.9949   8.1034   8.5526   8.5652
    11.3818  11.6687

          k =-0.1000 0.1000 0.5000 (  1556 PWs)   bands (ev):

    -0.9201  -0.6733   5.9013   5.9451   6.2672   6.3105   9.5069   9.5237
    10.2102  10.2271

          k =-0.5000-0.1000 0.1000 (  1556 PWs)   bands (ev):

    -0.8139  -0.7851   5.9733   5.9800   6.2306   6.2409   9.5278   9.5309
    10.1978  10.2042

          k = 0.5000-0.1000-0.1000 (  1556 PWs)   bands (ev):

    -0.8139  -0.7851   5.9663   5.9785   6.2343   6.2478   9.5274   9.5293
    10.1954  10.1987

          k =-0.1000-0.5000 0.1000 (  1556 PWs)   bands (ev):

    -0.8073  -0.7920   5.9759   5.9898   6.2229   6.2370   9.5198   9.5375
    10.1936  10.2069

          k =-0.1000 0.5000-0.1000 (  1556 PWs)   bands (ev):

    -0.8073  -0.7920   5.9715   5.9869   6.2276   6.2405   9.5171   9.5354
    10.1977  10.2094

          k =-0.1000-0.3000 0.3000 (  1565 PWs)   bands (ev):

    -1.5172   1.9977   2.0584   5.3236   5.5951   8.7698   8.8519   9.1788
    12.1285  12.1760

          k =-0.1000 0.3000-0.3000 (  1565 PWs)   bands (ev):

    -1.5172   1.9979   2.0585   5.3221   5.5959   8.7723   8.8561   9.1716
    12.1386  12.1720

          k = 0.1000-0.3000-0.3000 (  1565 PWs)   bands (ev):

    -1.5172   1.9737   2.0838   5.3205   5.5957   8.7345   8.8858   9.1819
    12.0767  12.1558

          k = 0.3000 0.1000-0.3000 (  1565 PWs)   bands (ev):

    -1.5172   2.0184   2.0377   5.3214   5.5960   8.7893   8.8235   9.1900
    12.1214  12.1995

          k =-0.3000-0.1000-0.3000 (  1565 PWs)   bands (ev):

    -1.5170   1.9954   2.0605   5.3244   5.5946   8.7511   8.8427   9.2091
    12.1139  12.1559

          k = 0.3000-0.1000 0.3000 (  1565 PWs)   bands (ev):

    -1.5171   1.9957   2.0608   5.3203   5.5970   8.7592   8.8502   9.1938
    12.1252  12.1617

          k =-0.3000 0.1000 0.3000 (  1565 PWs)   bands (ev):

    -1.5172   2.0187   2.0376   5.3227   5.5953   8.7751   8.8156   9.2122
    12.1127  12.1931

          k = 0.3000-0.3000 0.1000 (  1565 PWs)   bands (ev):

    -1.5156   1.9960   2.0551   5.3227   5.5951   8.7780   8.8588   9.1759
    12.1199  12.1690

          k =-0.3000-0.3000-0.1000 (  1565 PWs)   bands (ev):

    -1.5153   1.9612   2.0904   5.3249   5.5937   8.7288   8.9069   9.1731
    12.0694  12.1725

          k = 0.3000 0.3000-0.1000 (  1565 PWs)   bands (ev):

    -1.5154   1.9613   2.0906   5.3224   5.5952   8.7293   8.9075   9.1757
    12.0687  12.1646

          k =-0.3000 0.3000 0.1000 (  1565 PWs)   bands (ev):

    -1.5156   1.9960   2.0551   5.3254   5.5933   8.7764   8.8575   9.1714
    12.1227  12.1854

          k =-0.1000 0.3000 0.5000 (  1560 PWs)   bands (ev):

    -0.2079   0.0391   3.2958   3.5467   6.6632   6.9315  10.0176  10.2884
    10.4159  10.6357

          k = 0.3000 0.1000 0.5000 (  1560 PWs)   bands (ev):

    -0.2077   0.0393   3.2947   3.5459   6.6650   6.9330  10.0090  10.2891
    10.4121  10.6437

          k = 0.3000-0.1000-0.5000 (  1560 PWs)   bands (ev):

    -0.2078   0.0392   3.2951   3.5463   6.6638   6.9318  10.0074  10.2861
    10.4163  10.6474

          k =-0.5000-0.3000 0.1000 (  1560 PWs)   bands (ev):

    -0.1017  -0.0729   3.4037   3.4332   6.7841   6.8156  10.1517  10.1857
    10.5007  10.5274

          k = 0.5000-0.3000-0.1000 (  1560 PWs)   bands (ev):

    -0.1017  -0.0729   3.4036   3.4331   6.7856   6.8171  10.1262  10.1617
    10.5185  10.5551

          k =-0.1000-0.5000 0.3000 (  1560 PWs)   bands (ev):

    -0.0971  -0.0811   3.4194   3.4327   6.7819   6.8015  10.1511  10.1692
    10.5126  10.5249

          k =-0.1000 0.5000-0.3000 (  1560 PWs)   bands (ev):

    -0.0971  -0.0811   3.4192   3.4325   6.7821   6.8017  10.1609  10.1740
    10.5020  10.5214

          k = 0.3000-0.5000 0.1000 (  1560 PWs)   bands (ev):

    -0.0950  -0.0798   3.4103   3.4269   6.7929   6.8078  10.1450  10.1764
    10.5127  10.5293

          k = 0.3000 0.5000-0.1000 (  1560 PWs)   bands (ev):

    -0.0951  -0.0798   3.4105   3.4271   6.7928   6.8075  10.1333  10.1723
    10.5148  10.5437

          k =-0.5000 0.1000 0.3000 (  1560 PWs)   bands (ev):

    -0.1032  -0.0744   3.4103   3.4399   6.7779   6.8092  10.1216  10.1564
    10.5229  10.5530

          k = 0.5000-0.1000 0.3000 (  1560 PWs)   bands (ev):

    -0.1032  -0.0744   3.4104   3.4401   6.7764   6.8076  10.1418  10.1783
    10.5070  10.5336

          k =-0.5000 0.1000 0.5000 (  1548 PWs)   bands (ev):

     1.1869   1.2223   1.4360   1.4762   7.9903   8.0329   8.2668   8.3145
    11.7210  11.7510

          k =-0.5000 0.5000 0.1000 (  1548 PWs)   bands (ev):

     1.2613   1.2936   1.3577   1.3984   8.0681   8.1115   8.1938   8.2455
    11.8154  11.8316

          k =-0.3000-0.3000 0.3000 (  1556 PWs)   bands (ev):

    -0.8011   2.6512   2.7299   2.7941   6.1133   6.1812   6.2670   9.5771
    13.0119  13.0977

          k =-0.3000 0.3000-0.3000 (  1556 PWs)   bands (ev):

    -0.8013   2.6707   2.7272   2.7766   6.1294   6.1891   6.2433   9.5780
    13.0341  13.0965

          k = 0.3000-0.3000-0.3000 (  1556 PWs)   bands (ev):

    -0.8013   2.6625   2.7249   2.7881   6.1192   6.1868   6.2543   9.5738
    13.0266  13.0962

          k =-0.3000 0.3000 0.5000 (  1546 PWs)   bands (ev):

     0.5008   0.7482   3.9195   3.9622   4.2832   4.3244   7.4182   7.6820
    14.1404  14.1779

          k =-0.5000-0.3000 0.3000 (  1546 PWs)   bands (ev):

     0.6056   0.6343   3.9860   3.9923   4.2502   4.2596   7.5402   7.5718
    14.1798  14.1863

          k = 0.5000-0.3000-0.3000 (  1546 PWs)   bands (ev):

     0.6056   0.6344   3.9773   3.9888   4.2558   4.2684   7.5380   7.5693
    14.1803  14.1843

          k =-0.3000-0.5000 0.3000 (  1546 PWs)   bands (ev):

     0.6117   0.6276   3.9875   4.0005   4.2442   4.2569   7.5476   7.5628
    14.1743  14.1979

          k =-0.3000 0.5000-0.3000 (  1546 PWs)   bands (ev):

     0.6118   0.6277   3.9830   3.9972   4.2485   4.2603   7.5480   7.5633
    14.1688  14.1930

          k =-0.5000 0.3000 0.5000 (  1564 PWs)   bands (ev):

     1.8881   1.9235   2.1378   2.1778   5.3598   5.3967   5.6172   5.6590
    15.5023  15.5385

          k =-0.5000 0.5000 0.3000 (  1564 PWs)   bands (ev):

     1.9616   1.9935   2.0574   2.0979   5.4435   5.4772   5.5433   5.5857
    15.5893  15.6169

     the Fermi energy is     8.0592 ev

!    total energy              =    -157.99778578 Ry
     Harris-Foulkes estimate   =    -157.99778640 Ry
     estimated scf accuracy    <       0.00000087 Ry

     total all-electron energy =     -1942.568914 Ry

     The total energy is the sum of the following terms:

     one-electron contribution =      12.67604389 Ry
     hartree contribution      =       0.02965214 Ry
     xc contribution           =     -10.37044109 Ry
     ewald contribution        =     -21.62116467 Ry
     one-center paw contrib.   =    -138.71050373 Ry
     smearing contrib. (-TS)   =      -0.00137233 Ry

     convergence has been achieved in   8 iterations

     Forces acting on atoms (Ry/au):

     atom    1 type  1   force =     0.00117991    0.00005069    0.00870187
     atom    2 type  2   force =    -0.00370097    0.00674187    0.00869023
     atom    3 type  3   force =     0.00165351   -0.00075079   -0.01045620
     atom    4 type  4   force =     0.00086755   -0.00604176   -0.00693591

     Total force =     0.020243     Total SCF correction =     0.000689


     entering subroutine stress ...

          total   stress  (Ry/bohr**3)                   (kbar)     P=    3.46
   0.00002092  -0.00000438  -0.00000676          3.08     -0.64     -0.99
  -0.00000438   0.00004331   0.00001667         -0.64      6.37      2.45
  -0.00000676   0.00001667   0.00000630         -0.99      2.45      0.93


     Writing output data file template.save

     init_run     :      1.32s CPU      1.36s WALL (       1 calls)
     electrons    :     24.14s CPU     24.65s WALL (       1 calls)
     forces       :      0.17s CPU      0.17s WALL (       1 calls)
     stress       :      0.47s CPU      0.49s WALL (       1 calls)

     Called by init_run:
     wfcinit      :      0.79s CPU      0.81s WALL (       1 calls)
     potinit      :      0.12s CPU      0.13s WALL (       1 calls)

     Called by electrons:
     c_bands      :     19.37s CPU     19.74s WALL (       9 calls)
     sum_band     :      3.52s CPU      3.64s WALL (       9 calls)
     v_of_rho     :      0.15s CPU      0.16s WALL (       9 calls)
     newd         :      0.18s CPU      0.18s WALL (       9 calls)
     PAW_pot      :      0.90s CPU      0.91s WALL (       9 calls)
     mix_rho      :      0.11s CPU      0.11s WALL (       9 calls)

     Called by c_bands:
     init_us_2    :      0.44s CPU      0.46s WALL (    1323 calls)
     cegterg      :     18.83s CPU     19.15s WALL (     567 calls)

     Called by sum_band:
     sum_band:bec :      0.01s CPU      0.01s WALL (     567 calls)
     addusdens    :      0.22s CPU      0.22s WALL (       9 calls)

     Called by *egterg:
     h_psi        :     17.19s CPU     17.51s WALL (    2137 calls)
     s_psi        :      0.33s CPU      0.34s WALL (    2137 calls)
     g_psi        :      0.05s CPU      0.05s WALL (    1507 calls)
     cdiaghg      :      0.68s CPU      0.69s WALL (    2011 calls)

     Called by h_psi:
     h_psi:pot    :     17.15s CPU     17.47s WALL (    2137 calls)
     h_psi:calbec :      0.44s CPU      0.47s WALL (    2137 calls)
     vloc_psi     :     16.28s CPU     16.61s WALL (    2137 calls)
     add_vuspsi   :      0.40s CPU      0.37s WALL (    2137 calls)

     General routines
     calbec       :      0.63s CPU      0.67s WALL (    3019 calls)
     fft          :      0.15s CPU      0.15s WALL (     169 calls)
     ffts         :      0.07s CPU      0.07s WALL (     113 calls)
     fftw         :     18.24s CPU     18.70s WALL (   37714 calls)
     interpolate  :      0.02s CPU      0.03s WALL (      18 calls)
     davcio       :      0.00s CPU      0.00s WALL (      63 calls)

     Parallel routines
     fft_scatter  :      3.39s CPU      3.26s WALL (   37996 calls)

     PWSCF        :    27.29s CPU        27.99s WALL


   This run was terminated on:  15:53:13   9Jun2017            

=------------------------------------------------------------------------------=
   JOB DONE.
=------------------------------------------------------------------------------=
