
     Program PWSCF v.6.0 (svn rev. 13079) starts on  9Jun2017 at 15:57:14 

     This program is part of the open-source Quantum ESPRESSO suite
     for quantum simulation of materials; please cite
         "P. Giannozzi et al., J. Phys.:Condens. Matter 21 395502 (2009);
          URL http://www.quantum-espresso.org", 
     in publications or presentations arising from this work. More details at
     http://www.quantum-espresso.org/quote

     Parallel version (MPI), running on     4 processors
     R & G space division:  proc/nbgrp/npool/nimage =       4
     Waiting for input...
     Reading input from standard input
Warning: card &IONS ignored
Warning: card ION_DYNAMICS='BFGS', ignored
Warning: card / ignored
Warning: card &CELL ignored
Warning: card CELL_DYNAMICS='BFGS', ignored
Warning: card PRESS = 0.0, ignored
Warning: card CELL_FACTOR = 2.0, ignored
Warning: card / ignored

     Current dimensions of program PWSCF are:
     Max number of different atomic species (ntypx) = 10
     Max number of k-points (npk) =  40000
     Max angular momentum in pseudopotentials (lmaxx) =  3
               file Al.pbe-nl-kjpaw_psl.1.0.0.UPF: wavefunction(s)  3S 3P renormalized
               file Al.pbe-nl-kjpaw_psl.1.0.0.UPF: wavefunction(s)  3S 3P renormalized
               file Al.pbe-nl-kjpaw_psl.1.0.0.UPF: wavefunction(s)  3S 3P renormalized
               file Al.pbe-nl-kjpaw_psl.1.0.0.UPF: wavefunction(s)  3S 3P renormalized

     Subspace diagonalization in iterative solution of the eigenvalue problem:
     a serial algorithm will be used


     Parallelization info
     --------------------
     sticks:   dense  smooth     PW     G-vecs:    dense   smooth      PW
     Min         232     164     49                 5310     3132     527
     Max         234     165     50                 5313     3135     528
     Sum         933     657    197                21247    12533    2109



     bravais-lattice index     =            0
     lattice parameter (alat)  =       7.6300  a.u.
     unit-cell volume          =     444.1949 (a.u.)^3
     number of atoms/cell      =            4
     number of atomic types    =            4
     number of electrons       =        12.00
     number of Kohn-Sham states=           10
     kinetic-energy cutoff     =      35.0000  Ry
     charge density cutoff     =     200.0000  Ry
     convergence threshold     =      1.0E-06
     mixing beta               =       0.3000
     number of iterations used =           10  local-TF  mixing
     Exchange-correlation      =  SLA  PW   PBX  PBC ( 1  4  3  4 0 0)

     celldm(1)=   7.630000  celldm(2)=   0.000000  celldm(3)=   0.000000
     celldm(4)=   0.000000  celldm(5)=   0.000000  celldm(6)=   0.000000

     crystal axes: (cart. coord. in units of alat)
               a(1) = (   1.000000   0.000000   0.000000 )  
               a(2) = (   0.000000   1.000000   0.000000 )  
               a(3) = (   0.000000   0.000000   1.000000 )  

     reciprocal axes: (cart. coord. in units 2 pi/alat)
               b(1) = (  1.000000  0.000000  0.000000 )  
               b(2) = (  0.000000  1.000000  0.000000 )  
               b(3) = (  0.000000  0.000000  1.000000 )  


     PseudoPot. # 1 for Al read from file:
     /home/ben/espresso/pp/Al.pbe-nl-kjpaw_psl.1.0.0.UPF
     MD5 check sum: 339dbea23cf3ab9a065ad45c0f9085d7
     Pseudo is Projector augmented-wave + core cor, Zval =  3.0
     Generated using "atomic" code by A. Dal Corso  v.5.1
     Shape of augmentation charge: PSQ
     Using radial grid of 1135 points,  4 beta functions with: 
                l(1) =   0
                l(2) =   0
                l(3) =   1
                l(4) =   1
     Q(r) pseudized with 0 coefficients 


     PseudoPot. # 2 for Al read from file:
     /home/ben/espresso/pp/Al.pbe-nl-kjpaw_psl.1.0.0.UPF
     MD5 check sum: 339dbea23cf3ab9a065ad45c0f9085d7
     Pseudo is Projector augmented-wave + core cor, Zval =  3.0
     Generated using "atomic" code by A. Dal Corso  v.5.1
     Shape of augmentation charge: PSQ
     Using radial grid of 1135 points,  4 beta functions with: 
                l(1) =   0
                l(2) =   0
                l(3) =   1
                l(4) =   1
     Q(r) pseudized with 0 coefficients 


     PseudoPot. # 3 for Al read from file:
     /home/ben/espresso/pp/Al.pbe-nl-kjpaw_psl.1.0.0.UPF
     MD5 check sum: 339dbea23cf3ab9a065ad45c0f9085d7
     Pseudo is Projector augmented-wave + core cor, Zval =  3.0
     Generated using "atomic" code by A. Dal Corso  v.5.1
     Shape of augmentation charge: PSQ
     Using radial grid of 1135 points,  4 beta functions with: 
                l(1) =   0
                l(2) =   0
                l(3) =   1
                l(4) =   1
     Q(r) pseudized with 0 coefficients 


     PseudoPot. # 4 for Al read from file:
     /home/ben/espresso/pp/Al.pbe-nl-kjpaw_psl.1.0.0.UPF
     MD5 check sum: 339dbea23cf3ab9a065ad45c0f9085d7
     Pseudo is Projector augmented-wave + core cor, Zval =  3.0
     Generated using "atomic" code by A. Dal Corso  v.5.1
     Shape of augmentation charge: PSQ
     Using radial grid of 1135 points,  4 beta functions with: 
                l(1) =   0
                l(2) =   0
                l(3) =   1
                l(4) =   1
     Q(r) pseudized with 0 coefficients 


     atomic species   valence    mass     pseudopotential
        Al1            3.00    26.98200     Al( 1.00)
        Al2            3.00    26.98200     Al( 1.00)
        Al3            3.00    26.98200     Al( 1.00)
        Al4            3.00    26.98200     Al( 1.00)

     No symmetry found



   Cartesian axes

     site n.     atom                  positions (alat units)
         1           Al1 tau(   1) = (   0.9981886   0.0005271   0.0037713  )
         2           Al2 tau(   2) = (   0.5044123   0.4894691   0.0038980  )
         3           Al3 tau(   3) = (   0.4948523   0.0016903   0.5163795  )
         4           Al4 tau(   4) = (   0.9988912   0.5121233   0.5101822  )

     number of k points=    63  Marzari-Vanderbilt smearing, width (Ry)=  0.0200
                       cart. coord. in units 2pi/alat
        k(    1) = (   0.1000000   0.1000000   0.1000000), wk =   0.0320000
        k(    2) = (   0.1000000   0.1000000   0.3000000), wk =   0.0320000
        k(    3) = (   0.1000000   0.1000000  -0.5000000), wk =   0.0320000
        k(    4) = (   0.1000000   0.3000000   0.3000000), wk =   0.0320000
        k(    5) = (   0.1000000   0.3000000  -0.5000000), wk =   0.0320000
        k(    6) = (   0.1000000  -0.5000000  -0.5000000), wk =   0.0320000
        k(    7) = (   0.3000000   0.3000000   0.3000000), wk =   0.0320000
        k(    8) = (   0.3000000   0.3000000  -0.5000000), wk =   0.0320000
        k(    9) = (   0.3000000  -0.5000000  -0.5000000), wk =   0.0320000
        k(   10) = (  -0.5000000  -0.5000000  -0.5000000), wk =   0.0160000
        k(   11) = (  -0.1000000  -0.1000000   0.1000000), wk =   0.0320000
        k(   12) = (  -0.1000000   0.1000000  -0.1000000), wk =   0.0320000
        k(   13) = (   0.1000000  -0.1000000  -0.1000000), wk =   0.0320000
        k(   14) = (  -0.1000000  -0.1000000   0.3000000), wk =   0.0320000
        k(   15) = (  -0.1000000   0.1000000  -0.3000000), wk =   0.0320000
        k(   16) = (   0.1000000  -0.1000000  -0.3000000), wk =   0.0320000
        k(   17) = (   0.3000000  -0.1000000   0.1000000), wk =   0.0320000
        k(   18) = (  -0.3000000  -0.1000000  -0.1000000), wk =   0.0320000
        k(   19) = (   0.3000000   0.1000000  -0.1000000), wk =   0.0320000
        k(   20) = (  -0.3000000   0.1000000   0.1000000), wk =   0.0320000
        k(   21) = (  -0.1000000   0.3000000   0.1000000), wk =   0.0320000
        k(   22) = (  -0.1000000  -0.3000000  -0.1000000), wk =   0.0320000
        k(   23) = (   0.1000000   0.3000000  -0.1000000), wk =   0.0320000
        k(   24) = (   0.1000000  -0.3000000   0.1000000), wk =   0.0320000
        k(   25) = (  -0.1000000   0.1000000   0.5000000), wk =   0.0320000
        k(   26) = (  -0.5000000  -0.1000000   0.1000000), wk =   0.0320000
        k(   27) = (   0.5000000  -0.1000000  -0.1000000), wk =   0.0320000
        k(   28) = (  -0.1000000  -0.5000000   0.1000000), wk =   0.0320000
        k(   29) = (  -0.1000000   0.5000000  -0.1000000), wk =   0.0320000
        k(   30) = (  -0.1000000  -0.3000000   0.3000000), wk =   0.0320000
        k(   31) = (  -0.1000000   0.3000000  -0.3000000), wk =   0.0320000
        k(   32) = (   0.1000000  -0.3000000  -0.3000000), wk =   0.0320000
        k(   33) = (   0.3000000   0.1000000  -0.3000000), wk =   0.0320000
        k(   34) = (  -0.3000000  -0.1000000  -0.3000000), wk =   0.0320000
        k(   35) = (   0.3000000  -0.1000000   0.3000000), wk =   0.0320000
        k(   36) = (  -0.3000000   0.1000000   0.3000000), wk =   0.0320000
        k(   37) = (   0.3000000  -0.3000000   0.1000000), wk =   0.0320000
        k(   38) = (  -0.3000000  -0.3000000  -0.1000000), wk =   0.0320000
        k(   39) = (   0.3000000   0.3000000  -0.1000000), wk =   0.0320000
        k(   40) = (  -0.3000000   0.3000000   0.1000000), wk =   0.0320000
        k(   41) = (  -0.1000000   0.3000000   0.5000000), wk =   0.0320000
        k(   42) = (   0.3000000   0.1000000   0.5000000), wk =   0.0320000
        k(   43) = (   0.3000000  -0.1000000  -0.5000000), wk =   0.0320000
        k(   44) = (  -0.5000000  -0.3000000   0.1000000), wk =   0.0320000
        k(   45) = (   0.5000000  -0.3000000  -0.1000000), wk =   0.0320000
        k(   46) = (  -0.1000000  -0.5000000   0.3000000), wk =   0.0320000
        k(   47) = (  -0.1000000   0.5000000  -0.3000000), wk =   0.0320000
        k(   48) = (   0.3000000  -0.5000000   0.1000000), wk =   0.0320000
        k(   49) = (   0.3000000   0.5000000  -0.1000000), wk =   0.0320000
        k(   50) = (  -0.5000000   0.1000000   0.3000000), wk =   0.0320000
        k(   51) = (   0.5000000  -0.1000000   0.3000000), wk =   0.0320000
        k(   52) = (  -0.5000000   0.1000000   0.5000000), wk =   0.0320000
        k(   53) = (  -0.5000000   0.5000000   0.1000000), wk =   0.0320000
        k(   54) = (  -0.3000000  -0.3000000   0.3000000), wk =   0.0320000
        k(   55) = (  -0.3000000   0.3000000  -0.3000000), wk =   0.0320000
        k(   56) = (   0.3000000  -0.3000000  -0.3000000), wk =   0.0320000
        k(   57) = (  -0.3000000   0.3000000   0.5000000), wk =   0.0320000
        k(   58) = (  -0.5000000  -0.3000000   0.3000000), wk =   0.0320000
        k(   59) = (   0.5000000  -0.3000000  -0.3000000), wk =   0.0320000
        k(   60) = (  -0.3000000  -0.5000000   0.3000000), wk =   0.0320000
        k(   61) = (  -0.3000000   0.5000000  -0.3000000), wk =   0.0320000
        k(   62) = (  -0.5000000   0.3000000   0.5000000), wk =   0.0320000
        k(   63) = (  -0.5000000   0.5000000   0.3000000), wk =   0.0320000

     Dense  grid:    21247 G-vectors     FFT dimensions: (  36,  36,  36)

     Smooth grid:    12533 G-vectors     FFT dimensions: (  30,  30,  30)

     Estimated max dynamical RAM per process >       9.70Mb

     Estimated total allocated dynamical RAM >      38.81Mb

     Initial potential from superposition of free atoms

     starting charge   11.99084, renormalised to   12.00000
     Starting wfc are   16 randomized atomic wfcs
     Checking if some PAW data can be deallocated... 

     total cpu time spent up to now is        2.4 secs

     per-process dynamical memory:    16.8 Mb

     Self-consistent Calculation

     iteration #  1     ecut=    35.00 Ry     beta=0.30
     Davidson diagonalization with overlap
     ethr =  1.00E-02,  avg # of iterations =  3.1

     Threshold (ethr) on eigenvalues was too large:
     Diagonalizing with lowered threshold

     Davidson diagonalization with overlap
     ethr =  2.00E-04,  avg # of iterations =  4.0

     total cpu time spent up to now is        6.2 secs

     total energy              =    -158.00261154 Ry
     Harris-Foulkes estimate   =    -158.00513132 Ry
     estimated scf accuracy    <       0.02353445 Ry

     iteration #  2     ecut=    35.00 Ry     beta=0.30
     Davidson diagonalization with overlap
     ethr =  1.96E-04,  avg # of iterations =  1.2

     total cpu time spent up to now is        7.6 secs

     total energy              =    -157.99801875 Ry
     Harris-Foulkes estimate   =    -158.00276903 Ry
     estimated scf accuracy    <       0.01459977 Ry

     iteration #  3     ecut=    35.00 Ry     beta=0.30
     Davidson diagonalization with overlap
     ethr =  1.22E-04,  avg # of iterations =  1.3

     total cpu time spent up to now is        9.0 secs

     total energy              =    -157.99840086 Ry
     Harris-Foulkes estimate   =    -157.99845313 Ry
     estimated scf accuracy    <       0.00003236 Ry

     iteration #  4     ecut=    35.00 Ry     beta=0.30
     Davidson diagonalization with overlap
     c_bands:  2 eigenvalues not converged
     ethr =  2.70E-07,  avg # of iterations =  7.5

     total cpu time spent up to now is       17.7 secs

     total energy              =    -157.99849170 Ry
     Harris-Foulkes estimate   =    -157.99849888 Ry
     estimated scf accuracy    <       0.00003717 Ry

     iteration #  5     ecut=    35.00 Ry     beta=0.30
     Davidson diagonalization with overlap
     ethr =  2.70E-07,  avg # of iterations =  1.2

     total cpu time spent up to now is       22.1 secs

     total energy              =    -157.99845557 Ry
     Harris-Foulkes estimate   =    -157.99849186 Ry
     estimated scf accuracy    <       0.00002818 Ry

     iteration #  6     ecut=    35.00 Ry     beta=0.30
     Davidson diagonalization with overlap
     ethr =  2.35E-07,  avg # of iterations =  2.2

     total cpu time spent up to now is       24.7 secs

     total energy              =    -157.99846296 Ry
     Harris-Foulkes estimate   =    -157.99846334 Ry
     estimated scf accuracy    <       0.00000137 Ry

     iteration #  7     ecut=    35.00 Ry     beta=0.30
     Davidson diagonalization with overlap
     ethr =  1.14E-08,  avg # of iterations =  1.4

     total cpu time spent up to now is       26.1 secs

     End of self-consistent calculation

          k = 0.1000 0.1000 0.1000 (  1542 PWs)   bands (ev):

    -2.9563   3.9919   4.0604   4.1238   7.6877   7.7646   7.8362  10.7076
    10.7848  10.8736

          k = 0.1000 0.1000 0.3000 (  1532 PWs)   bands (ev):

    -2.2341   1.3304   4.6925   4.7872   7.9645   8.1324   8.5551   8.5733
    11.3762  11.7862

          k = 0.1000 0.1000-0.5000 (  1556 PWs)   bands (ev):

    -0.8928  -0.6985   5.9109   5.9747   6.2415   6.3059   9.5088   9.5302
    10.2072  10.2284

          k = 0.1000 0.3000 0.3000 (  1565 PWs)   bands (ev):

    -1.5144   1.9869   2.0726   5.3239   5.5962   8.7583   8.8768   9.1730
    12.0999  12.1787

          k = 0.1000 0.3000-0.5000 (  1560 PWs)   bands (ev):

    -0.1804   0.0141   3.3233   3.5209   6.6943   6.9052  10.0532  10.2722
    10.4274  10.6080

          k = 0.1000-0.5000-0.5000 (  1548 PWs)   bands (ev):

     1.2147   1.2420   1.4278   1.4420   8.0195   8.0545   8.2602   8.2790
    11.7489  11.7709

          k = 0.3000 0.3000 0.3000 (  1556 PWs)   bands (ev):

    -0.7982   2.6558   2.7290   2.7965   6.1125   6.1866   6.2638   9.5751
    13.0183  13.0986

          k = 0.3000 0.3000-0.5000 (  1546 PWs)   bands (ev):

     0.5286   0.7234   3.9260   3.9874   4.2604   4.3210   7.4470   7.6546
    14.1443  14.1921

          k = 0.3000-0.5000-0.5000 (  1564 PWs)   bands (ev):

     1.9164   1.9437   2.1299   2.1438   5.3875   5.4164   5.6083   5.6228
    15.5319  15.5625

          k =-0.5000-0.5000-0.5000 (  1568 PWs)   bands (ev):

     3.2377   3.2619   3.2975   3.3164   3.5570   3.5755   3.6049   3.6337
    19.1460  19.1954

          k =-0.1000-0.1000 0.1000 (  1542 PWs)   bands (ev):

    -2.9563   4.0052   4.0603   4.1096   7.7037   7.7654   7.8212  10.7248
    10.7838  10.8561

          k =-0.1000 0.1000-0.1000 (  1542 PWs)   bands (ev):

    -2.9564   4.0187   4.0598   4.0958   7.7198   7.7649   7.8066  10.7392
    10.7885  10.8363

          k = 0.1000-0.1000-0.1000 (  1542 PWs)   bands (ev):

    -2.9564   4.0125   4.0583   4.1042   7.7109   7.7642   7.8140  10.7321
    10.7859  10.8474

          k =-0.1000-0.1000 0.3000 (  1532 PWs)   bands (ev):

    -2.2341   1.3306   4.6919   4.7866   7.9684   8.1372   8.5513   8.5700
    11.3747  11.8139

          k =-0.1000 0.1000-0.3000 (  1532 PWs)   bands (ev):

    -2.2341   1.3305   4.7171   4.7605   8.0132   8.0903   8.5575   8.5658
    11.3752  11.8054

          k = 0.1000-0.1000-0.3000 (  1532 PWs)   bands (ev):

    -2.2341   1.3305   4.7176   4.7610   8.0059   8.0822   8.5650   8.5732
    11.3734  11.7948

          k = 0.3000-0.1000 0.1000 (  1532 PWs)   bands (ev):

    -2.2330   1.3260   4.7201   4.7642   8.0088   8.0871   8.5591   8.5680
    11.3836  11.7818

          k =-0.3000-0.1000-0.1000 (  1532 PWs)   bands (ev):

    -2.2330   1.3257   4.7028   4.7833   7.9764   8.1200   8.5543   8.5700
    11.3747  11.7535

          k = 0.3000 0.1000-0.1000 (  1532 PWs)   bands (ev):

    -2.2330   1.3258   4.7205   4.7646   8.0083   8.0866   8.5586   8.5673
    11.3854  11.7924

          k =-0.3000 0.1000 0.1000 (  1532 PWs)   bands (ev):

    -2.2330   1.3261   4.7023   4.7829   7.9766   8.1199   8.5546   8.5706
    11.3701  11.7991

          k =-0.1000 0.3000 0.1000 (  1532 PWs)   bands (ev):

    -2.2330   1.3257   4.7361   4.7492   8.0364   8.0586   8.5595   8.5653
    11.3782  11.7399

          k =-0.1000-0.3000-0.1000 (  1532 PWs)   bands (ev):

    -2.2330   1.3254   4.7196   4.7668   8.0059   8.0901   8.5565   8.5658
    11.3855  11.7249

          k = 0.1000 0.3000-0.1000 (  1532 PWs)   bands (ev):

    -2.2330   1.3255   4.7363   4.7489   8.0380   8.0602   8.5607   8.5633
    11.3811  11.6987

          k = 0.1000-0.3000 0.1000 (  1532 PWs)   bands (ev):

    -2.2330   1.3258   4.7187   4.7659   8.0088   8.0930   8.5562   8.5656
    11.3821  11.7097

          k =-0.1000 0.1000 0.5000 (  1556 PWs)   bands (ev):

    -0.8928  -0.6985   5.9300   5.9601   6.2556   6.2854   9.5175   9.5279
    10.2100  10.2203

          k =-0.5000-0.1000 0.1000 (  1556 PWs)   bands (ev):

    -0.8086  -0.7862   5.9789   5.9831   6.2315   6.2381   9.5308   9.5326
    10.2018  10.2062

          k = 0.5000-0.1000-0.1000 (  1556 PWs)   bands (ev):

    -0.8086  -0.7862   5.9744   5.9822   6.2339   6.2424   9.5304   9.5317
    10.2007  10.2026

          k =-0.1000-0.5000 0.1000 (  1556 PWs)   bands (ev):

    -0.8025  -0.7924   5.9806   5.9890   6.2271   6.2354   9.5259   9.5366
    10.1996  10.2075

          k =-0.1000 0.5000-0.1000 (  1556 PWs)   bands (ev):

    -0.8025  -0.7924   5.9780   5.9871   6.2298   6.2377   9.5243   9.5352
    10.2020  10.2091

          k =-0.1000-0.3000 0.3000 (  1565 PWs)   bands (ev):

    -1.5145   2.0059   2.0530   5.3250   5.5963   8.7825   8.8468   9.1777
    12.1466  12.1783

          k =-0.1000 0.3000-0.3000 (  1565 PWs)   bands (ev):

    -1.5145   2.0060   2.0531   5.3241   5.5968   8.7841   8.8492   9.1735
    12.1551  12.1736

          k = 0.1000-0.3000-0.3000 (  1565 PWs)   bands (ev):

    -1.5144   1.9871   2.0727   5.3232   5.5966   8.7553   8.8732   9.1796
    12.1074  12.1646

          k = 0.3000 0.1000-0.3000 (  1565 PWs)   bands (ev):

    -1.5144   2.0223   2.0367   5.3237   5.5969   8.8000   8.8238   9.1848
    12.1374  12.2041

          k =-0.3000-0.1000-0.3000 (  1565 PWs)   bands (ev):

    -1.5144   2.0043   2.0546   5.3255   5.5960   8.7707   8.8411   9.1967
    12.1336  12.1693

          k = 0.3000-0.1000 0.3000 (  1565 PWs)   bands (ev):

    -1.5144   2.0045   2.0548   5.3231   5.5974   8.7757   8.8459   9.1872
    12.1422  12.1711

          k =-0.3000 0.1000 0.3000 (  1565 PWs)   bands (ev):

    -1.5145   2.0225   2.0366   5.3245   5.5964   8.7911   8.8187   9.1988
    12.1330  12.1985

          k = 0.3000-0.3000 0.1000 (  1565 PWs)   bands (ev):

    -1.5135   2.0049   2.0510   5.3245   5.5963   8.7876   8.8509   9.1762
    12.1405  12.1749

          k =-0.3000-0.3000-0.1000 (  1565 PWs)   bands (ev):

    -1.5133   1.9778   2.0784   5.3258   5.5954   8.7495   8.8883   9.1745
    12.1017  12.1727

          k = 0.3000 0.3000-0.1000 (  1565 PWs)   bands (ev):

    -1.5133   1.9779   2.0785   5.3243   5.5963   8.7499   8.8887   9.1760
    12.1024  12.1671

          k =-0.3000 0.3000 0.1000 (  1565 PWs)   bands (ev):

    -1.5135   2.0049   2.0510   5.3261   5.5952   8.7867   8.8501   9.1734
    12.1409  12.1866

          k =-0.1000 0.3000 0.5000 (  1560 PWs)   bands (ev):

    -0.1805   0.0140   3.3236   3.5212   6.6935   6.9045  10.0520  10.2693
    10.4317  10.6099

          k = 0.3000 0.1000 0.5000 (  1560 PWs)   bands (ev):

    -0.1803   0.0142   3.3229   3.5207   6.6946   6.9054  10.0468  10.2675
    10.4318  10.6146

          k = 0.3000-0.1000-0.5000 (  1560 PWs)   bands (ev):

    -0.1804   0.0141   3.3232   3.5210   6.6939   6.9047  10.0458  10.2658
    10.4342  10.6169

          k =-0.5000-0.3000 0.1000 (  1560 PWs)   bands (ev):

    -0.0962  -0.0738   3.4092   3.4322   6.7883   6.8128  10.1560  10.1822
    10.5043  10.5253

          k = 0.5000-0.3000-0.1000 (  1560 PWs)   bands (ev):

    -0.0962  -0.0738   3.4091   3.4321   6.7892   6.8138  10.1404  10.1673
    10.5157  10.5420

          k =-0.1000-0.5000 0.3000 (  1560 PWs)   bands (ev):

    -0.0914  -0.0809   3.4209   3.4299   6.7892   6.8018  10.1581  10.1700
    10.5133  10.5217

          k =-0.1000 0.5000-0.3000 (  1560 PWs)   bands (ev):

    -0.0914  -0.0809   3.4207   3.4298   6.7893   6.8019  10.1638  10.1730
    10.5071  10.5195

          k = 0.3000-0.5000 0.1000 (  1560 PWs)   bands (ev):

    -0.0901  -0.0801   3.4153   3.4262   6.7959   6.8058  10.1545  10.1740
    10.5137  10.5245

          k = 0.3000 0.5000-0.1000 (  1560 PWs)   bands (ev):

    -0.0901  -0.0801   3.4155   3.4263   6.7958   6.8057  10.1471  10.1714
    10.5151  10.5334

          k =-0.5000 0.1000 0.3000 (  1560 PWs)   bands (ev):

    -0.0972  -0.0747   3.4133   3.4363   6.7844   6.8088  10.1376  10.1642
    10.5180  10.5409

          k = 0.5000-0.1000 0.3000 (  1560 PWs)   bands (ev):

    -0.0972  -0.0747   3.4134   3.4364   6.7835   6.8079  10.1501  10.1776
    10.5081  10.5290

          k =-0.5000 0.1000 0.5000 (  1548 PWs)   bands (ev):

     1.2187   1.2464   1.4150   1.4460   8.0266   8.0599   8.2440   8.2809
    11.7507  11.7747

          k =-0.5000 0.5000 0.1000 (  1548 PWs)   bands (ev):

     1.2780   1.3038   1.3535   1.3845   8.0874   8.1219   8.1858   8.2253
    11.8255  11.8394

          k =-0.3000-0.3000 0.3000 (  1556 PWs)   bands (ev):

    -0.7983   2.6697   2.7299   2.7810   6.1298   6.1841   6.2494   9.5766
    13.0343  13.0997

          k =-0.3000 0.3000-0.3000 (  1556 PWs)   bands (ev):

    -0.7984   2.6849   2.7281   2.7672   6.1430   6.1889   6.2316   9.5771
    13.0513  13.0997

          k = 0.3000-0.3000-0.3000 (  1556 PWs)   bands (ev):

    -0.7984   2.6781   2.7268   2.7759   6.1350   6.1876   6.2401   9.5746
    13.0443  13.0986

          k =-0.3000 0.3000 0.5000 (  1546 PWs)   bands (ev):

     0.5285   0.7233   3.9457   3.9748   4.2727   4.3009   7.4473   7.6549
    14.1619  14.1859

          k =-0.5000-0.3000 0.3000 (  1546 PWs)   bands (ev):

     0.6118   0.6343   3.9905   3.9945   4.2512   4.2572   7.5425   7.5670
    14.1876  14.1914

          k = 0.5000-0.3000-0.3000 (  1546 PWs)   bands (ev):

     0.6118   0.6343   3.9850   3.9923   4.2546   4.2626   7.5412   7.5655
    14.1879  14.1905

          k =-0.3000-0.5000 0.3000 (  1546 PWs)   bands (ev):

     0.6176   0.6281   3.9916   3.9994   4.2477   4.2552   7.5492   7.5593
    14.1963  14.5972

          k =-0.3000 0.5000-0.3000 (  1546 PWs)   bands (ev):

     0.6177   0.6281   3.9889   3.9973   4.2502   4.2574   7.5494   7.5596
    14.1810  14.1954

          k =-0.5000 0.3000 0.5000 (  1564 PWs)   bands (ev):

     1.9202   1.9479   2.1170   2.1479   5.3922   5.4210   5.5951   5.6273
    15.5378  15.5665

          k =-0.5000 0.5000 0.3000 (  1564 PWs)   bands (ev):

     1.9791   2.0046   2.0541   2.0849   5.4576   5.4845   5.5359   5.5682
    15.6058  15.6285

     the Fermi energy is     8.0654 ev

!    total energy              =    -157.99846264 Ry
     Harris-Foulkes estimate   =    -157.99846307 Ry
     estimated scf accuracy    <       0.00000059 Ry

     total all-electron energy =     -1942.569590 Ry

     The total energy is the sum of the following terms:

     one-electron contribution =      12.68038724 Ry
     hartree contribution      =       0.02741099 Ry
     xc contribution           =     -10.36933289 Ry
     ewald contribution        =     -21.62565495 Ry
     one-center paw contrib.   =    -138.70974816 Ry
     smearing contrib. (-TS)   =      -0.00152486 Ry

     convergence has been achieved in   7 iterations

     Forces acting on atoms (Ry/au):

     atom    1 type  1   force =     0.00088670    0.00004473    0.00654117
     atom    2 type  2   force =    -0.00278170    0.00507352    0.00651146
     atom    3 type  3   force =     0.00125662   -0.00055102   -0.00784670
     atom    4 type  4   force =     0.00063838   -0.00456723   -0.00520593

     Total force =     0.015208     Total SCF correction =     0.000474


     entering subroutine stress ...

          total   stress  (Ry/bohr**3)                   (kbar)     P=    2.34
   0.00001448  -0.00000268  -0.00000406          2.13     -0.39     -0.60
  -0.00000268   0.00002812   0.00001002         -0.39      4.14      1.47
  -0.00000406   0.00001002   0.00000506         -0.60      1.47      0.74


     Writing output data file template.save

     init_run     :      1.36s CPU      1.38s WALL (       1 calls)
     electrons    :     23.36s CPU     23.73s WALL (       1 calls)
     forces       :      0.16s CPU      0.16s WALL (       1 calls)
     stress       :      0.49s CPU      0.50s WALL (       1 calls)

     Called by init_run:
     wfcinit      :      0.81s CPU      0.83s WALL (       1 calls)
     potinit      :      0.12s CPU      0.12s WALL (       1 calls)

     Called by electrons:
     c_bands      :     19.02s CPU     19.32s WALL (       8 calls)
     sum_band     :      3.20s CPU      3.26s WALL (       8 calls)
     v_of_rho     :      0.15s CPU      0.15s WALL (       8 calls)
     newd         :      0.15s CPU      0.15s WALL (       8 calls)
     PAW_pot      :      0.83s CPU      0.83s WALL (       8 calls)
     mix_rho      :      0.10s CPU      0.10s WALL (       8 calls)

     Called by c_bands:
     init_us_2    :      0.40s CPU      0.41s WALL (    1197 calls)
     cegterg      :     18.54s CPU     18.82s WALL (     504 calls)

     Called by sum_band:
     sum_band:bec :      0.02s CPU      0.01s WALL (     504 calls)
     addusdens    :      0.21s CPU      0.21s WALL (       8 calls)

     Called by *egterg:
     h_psi        :     16.85s CPU     16.97s WALL (    1954 calls)
     s_psi        :      0.33s CPU      0.35s WALL (    1954 calls)
     g_psi        :      0.02s CPU      0.05s WALL (    1387 calls)
     cdiaghg      :      0.74s CPU      0.75s WALL (    1828 calls)

     Called by h_psi:
     h_psi:pot    :     16.82s CPU     16.93s WALL (    1954 calls)
     h_psi:calbec :      0.55s CPU      0.49s WALL (    1954 calls)
     vloc_psi     :     15.86s CPU     16.05s WALL (    1954 calls)
     add_vuspsi   :      0.39s CPU      0.38s WALL (    1954 calls)

     General routines
     calbec       :      0.75s CPU      0.66s WALL (    2773 calls)
     fft          :      0.14s CPU      0.14s WALL (     153 calls)
     ffts         :      0.07s CPU      0.07s WALL (      96 calls)
     fftw         :     17.45s CPU     17.83s WALL (   33728 calls)
     interpolate  :      0.03s CPU      0.03s WALL (      16 calls)
     davcio       :      0.00s CPU      0.00s WALL (      63 calls)

     Parallel routines
     fft_scatter  :      3.27s CPU      3.17s WALL (   33977 calls)

     PWSCF        :    26.47s CPU        26.99s WALL


   This run was terminated on:  15:57:41   9Jun2017            

=------------------------------------------------------------------------------=
   JOB DONE.
=------------------------------------------------------------------------------=
