
     Program PWSCF v.6.0 (svn rev. 13079) starts on  9Jun2017 at 15:50: 5 

     This program is part of the open-source Quantum ESPRESSO suite
     for quantum simulation of materials; please cite
         "P. Giannozzi et al., J. Phys.:Condens. Matter 21 395502 (2009);
          URL http://www.quantum-espresso.org", 
     in publications or presentations arising from this work. More details at
     http://www.quantum-espresso.org/quote

     Parallel version (MPI), running on     4 processors
     R & G space division:  proc/nbgrp/npool/nimage =       4
     Waiting for input...
     Reading input from standard input
Warning: card &IONS ignored
Warning: card ION_DYNAMICS='BFGS', ignored
Warning: card / ignored
Warning: card &CELL ignored
Warning: card CELL_DYNAMICS='BFGS', ignored
Warning: card PRESS = 0.0, ignored
Warning: card CELL_FACTOR = 2.0, ignored
Warning: card / ignored

     Current dimensions of program PWSCF are:
     Max number of different atomic species (ntypx) = 10
     Max number of k-points (npk) =  40000
     Max angular momentum in pseudopotentials (lmaxx) =  3
               file Al.pbe-nl-kjpaw_psl.1.0.0.UPF: wavefunction(s)  3S 3P renormalized
               file Al.pbe-nl-kjpaw_psl.1.0.0.UPF: wavefunction(s)  3S 3P renormalized
               file Al.pbe-nl-kjpaw_psl.1.0.0.UPF: wavefunction(s)  3S 3P renormalized
               file Al.pbe-nl-kjpaw_psl.1.0.0.UPF: wavefunction(s)  3S 3P renormalized

     Subspace diagonalization in iterative solution of the eigenvalue problem:
     a serial algorithm will be used


     Parallelization info
     --------------------
     sticks:   dense  smooth     PW     G-vecs:    dense   smooth      PW
     Min         232     164     49                 5310     3132     527
     Max         234     165     50                 5313     3135     528
     Sum         933     657    197                21247    12533    2109



     bravais-lattice index     =            0
     lattice parameter (alat)  =       7.6300  a.u.
     unit-cell volume          =     444.1949 (a.u.)^3
     number of atoms/cell      =            4
     number of atomic types    =            4
     number of electrons       =        12.00
     number of Kohn-Sham states=           10
     kinetic-energy cutoff     =      35.0000  Ry
     charge density cutoff     =     200.0000  Ry
     convergence threshold     =      1.0E-06
     mixing beta               =       0.3000
     number of iterations used =           10  local-TF  mixing
     Exchange-correlation      =  SLA  PW   PBX  PBC ( 1  4  3  4 0 0)

     celldm(1)=   7.630000  celldm(2)=   0.000000  celldm(3)=   0.000000
     celldm(4)=   0.000000  celldm(5)=   0.000000  celldm(6)=   0.000000

     crystal axes: (cart. coord. in units of alat)
               a(1) = (   1.000000   0.000000   0.000000 )  
               a(2) = (   0.000000   1.000000   0.000000 )  
               a(3) = (   0.000000   0.000000   1.000000 )  

     reciprocal axes: (cart. coord. in units 2 pi/alat)
               b(1) = (  1.000000  0.000000  0.000000 )  
               b(2) = (  0.000000  1.000000  0.000000 )  
               b(3) = (  0.000000  0.000000  1.000000 )  


     PseudoPot. # 1 for Al read from file:
     /home/ben/espresso/pp/Al.pbe-nl-kjpaw_psl.1.0.0.UPF
     MD5 check sum: 339dbea23cf3ab9a065ad45c0f9085d7
     Pseudo is Projector augmented-wave + core cor, Zval =  3.0
     Generated using "atomic" code by A. Dal Corso  v.5.1
     Shape of augmentation charge: PSQ
     Using radial grid of 1135 points,  4 beta functions with: 
                l(1) =   0
                l(2) =   0
                l(3) =   1
                l(4) =   1
     Q(r) pseudized with 0 coefficients 


     PseudoPot. # 2 for Al read from file:
     /home/ben/espresso/pp/Al.pbe-nl-kjpaw_psl.1.0.0.UPF
     MD5 check sum: 339dbea23cf3ab9a065ad45c0f9085d7
     Pseudo is Projector augmented-wave + core cor, Zval =  3.0
     Generated using "atomic" code by A. Dal Corso  v.5.1
     Shape of augmentation charge: PSQ
     Using radial grid of 1135 points,  4 beta functions with: 
                l(1) =   0
                l(2) =   0
                l(3) =   1
                l(4) =   1
     Q(r) pseudized with 0 coefficients 


     PseudoPot. # 3 for Al read from file:
     /home/ben/espresso/pp/Al.pbe-nl-kjpaw_psl.1.0.0.UPF
     MD5 check sum: 339dbea23cf3ab9a065ad45c0f9085d7
     Pseudo is Projector augmented-wave + core cor, Zval =  3.0
     Generated using "atomic" code by A. Dal Corso  v.5.1
     Shape of augmentation charge: PSQ
     Using radial grid of 1135 points,  4 beta functions with: 
                l(1) =   0
                l(2) =   0
                l(3) =   1
                l(4) =   1
     Q(r) pseudized with 0 coefficients 


     PseudoPot. # 4 for Al read from file:
     /home/ben/espresso/pp/Al.pbe-nl-kjpaw_psl.1.0.0.UPF
     MD5 check sum: 339dbea23cf3ab9a065ad45c0f9085d7
     Pseudo is Projector augmented-wave + core cor, Zval =  3.0
     Generated using "atomic" code by A. Dal Corso  v.5.1
     Shape of augmentation charge: PSQ
     Using radial grid of 1135 points,  4 beta functions with: 
                l(1) =   0
                l(2) =   0
                l(3) =   1
                l(4) =   1
     Q(r) pseudized with 0 coefficients 


     atomic species   valence    mass     pseudopotential
        Al1            3.00    26.98200     Al( 1.00)
        Al2            3.00    26.98200     Al( 1.00)
        Al3            3.00    26.98200     Al( 1.00)
        Al4            3.00    26.98200     Al( 1.00)

     No symmetry found



   Cartesian axes

     site n.     atom                  positions (alat units)
         1           Al1 tau(   1) = (   0.9997323   0.0000779   0.0005573  )
         2           Al2 tau(   2) = (   0.5006521   0.4984437   0.0005761  )
         3           Al3 tau(   3) = (   0.4992392   0.0002498   0.5024207  )
         4           Al4 tau(   4) = (   0.9998361   0.5017916   0.5015048  )

     number of k points=    63  Marzari-Vanderbilt smearing, width (Ry)=  0.0200
                       cart. coord. in units 2pi/alat
        k(    1) = (   0.1000000   0.1000000   0.1000000), wk =   0.0320000
        k(    2) = (   0.1000000   0.1000000   0.3000000), wk =   0.0320000
        k(    3) = (   0.1000000   0.1000000  -0.5000000), wk =   0.0320000
        k(    4) = (   0.1000000   0.3000000   0.3000000), wk =   0.0320000
        k(    5) = (   0.1000000   0.3000000  -0.5000000), wk =   0.0320000
        k(    6) = (   0.1000000  -0.5000000  -0.5000000), wk =   0.0320000
        k(    7) = (   0.3000000   0.3000000   0.3000000), wk =   0.0320000
        k(    8) = (   0.3000000   0.3000000  -0.5000000), wk =   0.0320000
        k(    9) = (   0.3000000  -0.5000000  -0.5000000), wk =   0.0320000
        k(   10) = (  -0.5000000  -0.5000000  -0.5000000), wk =   0.0160000
        k(   11) = (  -0.1000000  -0.1000000   0.1000000), wk =   0.0320000
        k(   12) = (  -0.1000000   0.1000000  -0.1000000), wk =   0.0320000
        k(   13) = (   0.1000000  -0.1000000  -0.1000000), wk =   0.0320000
        k(   14) = (  -0.1000000  -0.1000000   0.3000000), wk =   0.0320000
        k(   15) = (  -0.1000000   0.1000000  -0.3000000), wk =   0.0320000
        k(   16) = (   0.1000000  -0.1000000  -0.3000000), wk =   0.0320000
        k(   17) = (   0.3000000  -0.1000000   0.1000000), wk =   0.0320000
        k(   18) = (  -0.3000000  -0.1000000  -0.1000000), wk =   0.0320000
        k(   19) = (   0.3000000   0.1000000  -0.1000000), wk =   0.0320000
        k(   20) = (  -0.3000000   0.1000000   0.1000000), wk =   0.0320000
        k(   21) = (  -0.1000000   0.3000000   0.1000000), wk =   0.0320000
        k(   22) = (  -0.1000000  -0.3000000  -0.1000000), wk =   0.0320000
        k(   23) = (   0.1000000   0.3000000  -0.1000000), wk =   0.0320000
        k(   24) = (   0.1000000  -0.3000000   0.1000000), wk =   0.0320000
        k(   25) = (  -0.1000000   0.1000000   0.5000000), wk =   0.0320000
        k(   26) = (  -0.5000000  -0.1000000   0.1000000), wk =   0.0320000
        k(   27) = (   0.5000000  -0.1000000  -0.1000000), wk =   0.0320000
        k(   28) = (  -0.1000000  -0.5000000   0.1000000), wk =   0.0320000
        k(   29) = (  -0.1000000   0.5000000  -0.1000000), wk =   0.0320000
        k(   30) = (  -0.1000000  -0.3000000   0.3000000), wk =   0.0320000
        k(   31) = (  -0.1000000   0.3000000  -0.3000000), wk =   0.0320000
        k(   32) = (   0.1000000  -0.3000000  -0.3000000), wk =   0.0320000
        k(   33) = (   0.3000000   0.1000000  -0.3000000), wk =   0.0320000
        k(   34) = (  -0.3000000  -0.1000000  -0.3000000), wk =   0.0320000
        k(   35) = (   0.3000000  -0.1000000   0.3000000), wk =   0.0320000
        k(   36) = (  -0.3000000   0.1000000   0.3000000), wk =   0.0320000
        k(   37) = (   0.3000000  -0.3000000   0.1000000), wk =   0.0320000
        k(   38) = (  -0.3000000  -0.3000000  -0.1000000), wk =   0.0320000
        k(   39) = (   0.3000000   0.3000000  -0.1000000), wk =   0.0320000
        k(   40) = (  -0.3000000   0.3000000   0.1000000), wk =   0.0320000
        k(   41) = (  -0.1000000   0.3000000   0.5000000), wk =   0.0320000
        k(   42) = (   0.3000000   0.1000000   0.5000000), wk =   0.0320000
        k(   43) = (   0.3000000  -0.1000000  -0.5000000), wk =   0.0320000
        k(   44) = (  -0.5000000  -0.3000000   0.1000000), wk =   0.0320000
        k(   45) = (   0.5000000  -0.3000000  -0.1000000), wk =   0.0320000
        k(   46) = (  -0.1000000  -0.5000000   0.3000000), wk =   0.0320000
        k(   47) = (  -0.1000000   0.5000000  -0.3000000), wk =   0.0320000
        k(   48) = (   0.3000000  -0.5000000   0.1000000), wk =   0.0320000
        k(   49) = (   0.3000000   0.5000000  -0.1000000), wk =   0.0320000
        k(   50) = (  -0.5000000   0.1000000   0.3000000), wk =   0.0320000
        k(   51) = (   0.5000000  -0.1000000   0.3000000), wk =   0.0320000
        k(   52) = (  -0.5000000   0.1000000   0.5000000), wk =   0.0320000
        k(   53) = (  -0.5000000   0.5000000   0.1000000), wk =   0.0320000
        k(   54) = (  -0.3000000  -0.3000000   0.3000000), wk =   0.0320000
        k(   55) = (  -0.3000000   0.3000000  -0.3000000), wk =   0.0320000
        k(   56) = (   0.3000000  -0.3000000  -0.3000000), wk =   0.0320000
        k(   57) = (  -0.3000000   0.3000000   0.5000000), wk =   0.0320000
        k(   58) = (  -0.5000000  -0.3000000   0.3000000), wk =   0.0320000
        k(   59) = (   0.5000000  -0.3000000  -0.3000000), wk =   0.0320000
        k(   60) = (  -0.3000000  -0.5000000   0.3000000), wk =   0.0320000
        k(   61) = (  -0.3000000   0.5000000  -0.3000000), wk =   0.0320000
        k(   62) = (  -0.5000000   0.3000000   0.5000000), wk =   0.0320000
        k(   63) = (  -0.5000000   0.5000000   0.3000000), wk =   0.0320000

     Dense  grid:    21247 G-vectors     FFT dimensions: (  36,  36,  36)

     Smooth grid:    12533 G-vectors     FFT dimensions: (  30,  30,  30)

     Estimated max dynamical RAM per process >       9.70Mb

     Estimated total allocated dynamical RAM >      38.81Mb

     Initial potential from superposition of free atoms

     starting charge   11.99084, renormalised to   12.00000
     Starting wfc are   16 randomized atomic wfcs
     Checking if some PAW data can be deallocated... 

     total cpu time spent up to now is        2.4 secs

     per-process dynamical memory:    16.8 Mb

     Self-consistent Calculation

     iteration #  1     ecut=    35.00 Ry     beta=0.30
     Davidson diagonalization with overlap
     ethr =  1.00E-02,  avg # of iterations =  3.1

     Threshold (ethr) on eigenvalues was too large:
     Diagonalizing with lowered threshold

     Davidson diagonalization with overlap
     ethr =  1.95E-04,  avg # of iterations =  3.5

     total cpu time spent up to now is        6.3 secs

     total energy              =    -158.00347039 Ry
     Harris-Foulkes estimate   =    -158.00587210 Ry
     estimated scf accuracy    <       0.02273478 Ry

     iteration #  2     ecut=    35.00 Ry     beta=0.30
     Davidson diagonalization with overlap
     ethr =  1.89E-04,  avg # of iterations =  1.0

     total cpu time spent up to now is        7.6 secs

     total energy              =    -157.99910713 Ry
     Harris-Foulkes estimate   =    -158.00361089 Ry
     estimated scf accuracy    <       0.01413073 Ry

     iteration #  3     ecut=    35.00 Ry     beta=0.30
     Davidson diagonalization with overlap
     ethr =  1.18E-04,  avg # of iterations =  1.7

     total cpu time spent up to now is        9.1 secs

     total energy              =    -157.99938197 Ry
     Harris-Foulkes estimate   =    -157.99943991 Ry
     estimated scf accuracy    <       0.00002811 Ry

     iteration #  4     ecut=    35.00 Ry     beta=0.30
     Davidson diagonalization with overlap
     c_bands:  1 eigenvalues not converged
     ethr =  2.34E-07,  avg # of iterations =  6.2

     total cpu time spent up to now is       11.7 secs

     total energy              =    -157.99943652 Ry
     Harris-Foulkes estimate   =    -157.99945600 Ry
     estimated scf accuracy    <       0.00001405 Ry

     iteration #  5     ecut=    35.00 Ry     beta=0.30
     Davidson diagonalization with overlap
     ethr =  1.17E-07,  avg # of iterations =  1.3

     total cpu time spent up to now is       13.0 secs

     total energy              =    -157.99943170 Ry
     Harris-Foulkes estimate   =    -157.99943745 Ry
     estimated scf accuracy    <       0.00000435 Ry

     iteration #  6     ecut=    35.00 Ry     beta=0.30
     Davidson diagonalization with overlap
     ethr =  3.62E-08,  avg # of iterations =  2.0

     total cpu time spent up to now is       14.7 secs

     End of self-consistent calculation

          k = 0.1000 0.1000 0.1000 (  1542 PWs)   bands (ev):

    -2.9538   4.0510   4.0607   4.0703   7.7559   7.7669   7.7777  10.7773
    10.7893  10.8016

          k = 0.1000 0.1000 0.3000 (  1532 PWs)   bands (ev):

    -2.2304   1.3293   4.7370   4.7509   8.0408   8.0656   8.5621   8.5647
    11.3817  11.8247

          k = 0.1000 0.1000-0.5000 (  1556 PWs)   bands (ev):

    -0.8087  -0.7804   5.9853   5.9872   6.2327   6.2346   9.5345   9.5350
    10.2074  10.2081

          k = 0.1000 0.3000 0.3000 (  1565 PWs)   bands (ev):

    -1.5106   2.0249   2.0374   5.3268   5.5974   8.8111   8.8286   9.1760
    12.2004  12.2277

          k = 0.1000 0.3000-0.5000 (  1560 PWs)   bands (ev):

    -0.0960  -0.0677   3.4092   3.4381   6.7856   6.8164  10.1527  10.1851
    10.5022  10.5288

          k = 0.1000-0.5000-0.5000 (  1548 PWs)   bands (ev):

     1.3162   1.3193   1.3464   1.3494   8.1359   8.1399   8.1700   8.1739
    11.8460  11.8469

          k = 0.3000 0.3000 0.3000 (  1556 PWs)   bands (ev):

    -0.7944   2.7189   2.7292   2.7395   6.1771   6.1882   6.1993   9.5750
    13.0932  13.1032

          k = 0.3000 0.3000-0.5000 (  1546 PWs)   bands (ev):

     0.6133   0.6417   3.9955   3.9973   4.2523   4.2540   7.5369   7.5672
    14.1979  14.6062

          k = 0.3000-0.5000-0.5000 (  1564 PWs)   bands (ev):

     2.0184   2.0214   2.0486   2.0516   5.4922   5.4954   5.5235   5.5266
    15.6458  15.6675

          k =-0.5000-0.5000-0.5000 (  1568 PWs)   bands (ev):

     3.3227   3.3233   3.3245   3.3249   3.5481   3.5489   3.5495   3.5508
    19.3512  19.3572

          k =-0.1000-0.1000 0.1000 (  1542 PWs)   bands (ev):

    -2.9538   4.0530   4.0607   4.0682   7.7582   7.7669   7.7754  10.7798
    10.7893  10.7991

          k =-0.1000 0.1000-0.1000 (  1542 PWs)   bands (ev):

    -2.9538   4.0550   4.0607   4.0662   7.7605   7.7669   7.7732  10.7823
    10.7894  10.7965

          k = 0.1000-0.1000-0.1000 (  1542 PWs)   bands (ev):

    -2.9538   4.0539   4.0606   4.0673   7.7592   7.7669   7.7744  10.7810
    10.7894  10.7979

          k =-0.1000-0.1000 0.3000 (  1532 PWs)   bands (ev):

    -2.2304   1.3293   4.7370   4.7509   8.0408   8.0657   8.5620   8.5646
    11.3817  11.8257

          k =-0.1000 0.1000-0.3000 (  1532 PWs)   bands (ev):

    -2.2304   1.3293   4.7407   4.7471   8.0476   8.0589   8.5628   8.5639
    11.3817  11.8254

          k = 0.1000-0.1000-0.3000 (  1532 PWs)   bands (ev):

    -2.2304   1.3293   4.7408   4.7471   8.0474   8.0588   8.5629   8.5641
    11.3816  11.8250

          k = 0.3000-0.1000 0.1000 (  1532 PWs)   bands (ev):

    -2.2304   1.3292   4.7408   4.7472   8.0474   8.0589   8.5628   8.5640
    11.3819  11.8242

          k =-0.3000-0.1000-0.1000 (  1532 PWs)   bands (ev):

    -2.2304   1.3292   4.7381   4.7499   8.0426   8.0637   8.5623   8.5644
    11.3817  11.8225

          k = 0.3000 0.1000-0.1000 (  1532 PWs)   bands (ev):

    -2.2304   1.3292   4.7408   4.7472   8.0474   8.0589   8.5628   8.5640
    11.3819  11.8250

          k =-0.3000 0.1000 0.1000 (  1532 PWs)   bands (ev):

    -2.2304   1.3292   4.7381   4.7499   8.0426   8.0637   8.5623   8.5645
    11.3816  11.8253

          k =-0.1000 0.3000 0.1000 (  1532 PWs)   bands (ev):

    -2.2304   1.3292   4.7431   4.7449   8.0515   8.0548   8.5632   8.5636
    11.3817  11.8211

          k =-0.1000-0.3000-0.1000 (  1532 PWs)   bands (ev):

    -2.2304   1.3292   4.7406   4.7474   8.0470   8.0593   8.5627   8.5639
    11.3819  11.8199

          k = 0.1000 0.3000-0.1000 (  1532 PWs)   bands (ev):

    -2.2304   1.3292   4.7431   4.7449   8.0516   8.0548   8.5632   8.5635
    11.3818  11.8172

          k = 0.1000-0.3000 0.1000 (  1532 PWs)   bands (ev):

    -2.2304   1.3292   4.7406   4.7474   8.0471   8.0594   8.5627   8.5639
    11.3818  11.8187

          k =-0.1000 0.1000 0.5000 (  1556 PWs)   bands (ev):

    -0.8087  -0.7804   5.9859   5.9868   6.2331   6.2340   9.5346   9.5350
    10.2074  10.2079

          k =-0.5000-0.1000 0.1000 (  1556 PWs)   bands (ev):

    -0.7962  -0.7929   5.9872   5.9874   6.2324   6.2328   9.5349   9.5351
    10.2072  10.2077

          k = 0.5000-0.1000-0.1000 (  1556 PWs)   bands (ev):

    -0.7962  -0.7929   5.9871   5.9874   6.2325   6.2329   9.5349   9.5351
    10.2072  10.2076

          k =-0.1000-0.5000 0.1000 (  1556 PWs)   bands (ev):

    -0.7951  -0.7941   5.9873   5.9874   6.2325   6.2326   9.5349   9.5351
    10.2074  10.2074

          k =-0.1000 0.5000-0.1000 (  1556 PWs)   bands (ev):

    -0.7951  -0.7941   5.9873   5.9874   6.2326   6.2326   9.5349   9.5350
    10.2074  10.2075

          k =-0.1000-0.3000 0.3000 (  1565 PWs)   bands (ev):

    -1.5106   2.0277   2.0346   5.3269   5.5974   8.8150   8.8245   9.1761
    12.2065  12.2210

          k =-0.1000 0.3000-0.3000 (  1565 PWs)   bands (ev):

    -1.5106   2.0277   2.0346   5.3268   5.5974   8.8151   8.8246   9.1760
    12.2071  12.2218

          k = 0.1000-0.3000-0.3000 (  1565 PWs)   bands (ev):

    -1.5106   2.0249   2.0374   5.3268   5.5974   8.8111   8.8285   9.1761
    12.2019  12.2280

          k = 0.3000 0.1000-0.3000 (  1565 PWs)   bands (ev):

    -1.5106   2.0302   2.0321   5.3268   5.5974   8.8184   8.8211   9.1762
    12.2128  12.2157

          k =-0.3000-0.1000-0.3000 (  1565 PWs)   bands (ev):

    -1.5106   2.0275   2.0348   5.3269   5.5974   8.8145   8.8246   9.1765
    12.1733  12.2082

          k = 0.3000-0.1000 0.3000 (  1565 PWs)   bands (ev):

    -1.5106   2.0275   2.0348   5.3268   5.5974   8.8146   8.8248   9.1763
    12.2054  12.2192

          k =-0.3000 0.1000 0.3000 (  1565 PWs)   bands (ev):

    -1.5106   2.0302   2.0321   5.3268   5.5974   8.8182   8.8209   9.1766
    12.1684  12.2133

          k = 0.3000-0.3000 0.1000 (  1565 PWs)   bands (ev):

    -1.5106   2.0277   2.0345   5.3268   5.5974   8.8152   8.8246   9.1760
    12.2072  12.2214

          k =-0.3000-0.3000-0.1000 (  1565 PWs)   bands (ev):

    -1.5106   2.0237   2.0385   5.3269   5.5974   8.8096   8.8301   9.1760
    12.1990  12.2291

          k = 0.3000 0.3000-0.1000 (  1565 PWs)   bands (ev):

    -1.5106   2.0238   2.0385   5.3268   5.5974   8.8096   8.8301   9.1760
    12.1993  12.2297

          k =-0.3000 0.3000 0.1000 (  1565 PWs)   bands (ev):

    -1.5106   2.0277   2.0345   5.3269   5.5974   8.8152   8.8245   9.1760
    12.1677  12.2081

          k =-0.1000 0.3000 0.5000 (  1560 PWs)   bands (ev):

    -0.0960  -0.0677   3.4093   3.4381   6.7856   6.8164  10.1526  10.1850
    10.5023  10.5289

          k = 0.3000 0.1000 0.5000 (  1560 PWs)   bands (ev):

    -0.0960  -0.0677   3.4092   3.4381   6.7856   6.8164  10.1525  10.1849
    10.5023  10.5290

          k = 0.3000-0.1000-0.5000 (  1560 PWs)   bands (ev):

    -0.0960  -0.0677   3.4092   3.4381   6.7856   6.8164  10.1525  10.1849
    10.5024  10.5290

          k =-0.5000-0.3000 0.1000 (  1560 PWs)   bands (ev):

    -0.0835  -0.0803   3.4220   3.4253   6.7992   6.8028  10.1671  10.1709
    10.5140  10.5170

          k = 0.5000-0.3000-0.1000 (  1560 PWs)   bands (ev):

    -0.0835  -0.0803   3.4220   3.4253   6.7993   6.8028  10.1668  10.1705
    10.5143  10.5173

          k =-0.1000-0.5000 0.3000 (  1560 PWs)   bands (ev):

    -0.0824  -0.0814   3.4232   3.4242   6.8004   6.8014  10.1683  10.1695
    10.5151  10.5160

          k =-0.1000 0.5000-0.3000 (  1560 PWs)   bands (ev):

    -0.0824  -0.0814   3.4232   3.4242   6.8004   6.8014  10.1684  10.1696
    10.5150  10.5159

          k = 0.3000-0.5000 0.1000 (  1560 PWs)   bands (ev):

    -0.0824  -0.0814   3.4231   3.4241   6.8005   6.8016  10.1683  10.1695
    10.5151  10.5161

          k = 0.3000 0.5000-0.1000 (  1560 PWs)   bands (ev):

    -0.0824  -0.0814   3.4231   3.4241   6.8005   6.8016  10.1682  10.1694
    10.5152  10.5162

          k =-0.5000 0.1000 0.3000 (  1560 PWs)   bands (ev):

    -0.0835  -0.0803   3.4221   3.4254   6.7992   6.8027  10.1667  10.1704
    10.5143  10.5173

          k = 0.5000-0.1000 0.3000 (  1560 PWs)   bands (ev):

    -0.0835  -0.0803   3.4221   3.4254   6.7991   6.8027  10.1670  10.1707
    10.5140  10.5171

          k =-0.5000 0.1000 0.5000 (  1548 PWs)   bands (ev):

     1.3164   1.3204   1.3450   1.3495   8.1365   8.1413   8.1682   8.1736
    11.8447  11.8480

          k =-0.5000 0.5000 0.1000 (  1548 PWs)   bands (ev):

     1.3251   1.3292   1.3364   1.3406   8.1449   8.1502   8.1596   8.1651
    11.8580  11.8614

          k =-0.3000-0.3000 0.3000 (  1556 PWs)   bands (ev):

    -0.7944   2.7210   2.7292   2.7373   6.1794   6.1881   6.1970   9.5751
    13.0979  13.1091

          k =-0.3000 0.3000-0.3000 (  1556 PWs)   bands (ev):

    -0.7944   2.7232   2.7292   2.7352   6.1817   6.1882   6.1946   9.5751
    13.0995  13.1059

          k = 0.3000-0.3000-0.3000 (  1556 PWs)   bands (ev):

    -0.7944   2.7220   2.7292   2.7363   6.1805   6.1882   6.1959   9.5750
    13.0976  13.1022

          k =-0.3000 0.3000 0.5000 (  1546 PWs)   bands (ev):

     0.6133   0.6417   3.9961   3.9970   4.2526   4.2534   7.5369   7.5672
    14.1983  14.1990

          k =-0.5000-0.3000 0.3000 (  1546 PWs)   bands (ev):

     0.6258   0.6290   3.9972   3.9975   4.2520   4.2524   7.5504   7.5539
    14.1990  14.1990

          k = 0.5000-0.3000-0.3000 (  1546 PWs)   bands (ev):

     0.6258   0.6290   3.9971   3.9974   4.2521   4.2525   7.5504   7.5539
    14.1989  14.1991

          k =-0.3000-0.5000 0.3000 (  1546 PWs)   bands (ev):

     0.6269   0.6279   3.9974   3.9975   4.2521   4.2521   7.5516   7.5527
    14.6059  14.6062

          k =-0.3000 0.5000-0.3000 (  1546 PWs)   bands (ev):

     0.6269   0.6279   3.9973   3.9974   4.2522   4.2522   7.5516   7.5527
    14.1991  14.6062

          k =-0.5000 0.3000 0.5000 (  1564 PWs)   bands (ev):

     2.0185   2.0225   2.0472   2.0517   5.4924   5.4966   5.5221   5.5267
    15.6447  15.6496

          k =-0.5000 0.5000 0.3000 (  1564 PWs)   bands (ev):

     2.0273   2.0313   2.0385   2.0427   5.5015   5.5057   5.5132   5.5176
    15.6573  15.6642

     the Fermi energy is     8.0751 ev

!    total energy              =    -157.99943249 Ry
     Harris-Foulkes estimate   =    -157.99943253 Ry
     estimated scf accuracy    <       0.00000015 Ry

     total all-electron energy =     -1942.570560 Ry

     The total energy is the sum of the following terms:

     one-electron contribution =      12.68723643 Ry
     hartree contribution      =       0.02391544 Ry
     xc contribution           =     -10.36776549 Ry
     ewald contribution        =     -21.63223010 Ry
     one-center paw contrib.   =    -138.70878485 Ry
     smearing contrib. (-TS)   =      -0.00180393 Ry

     convergence has been achieved in   6 iterations

     Forces acting on atoms (Ry/au):

     atom    1 type  1   force =     0.00014564   -0.00001849    0.00095218
     atom    2 type  2   force =    -0.00042921    0.00071479    0.00094575
     atom    3 type  3   force =     0.00017621   -0.00003134   -0.00116099
     atom    4 type  4   force =     0.00010736   -0.00066496   -0.00073694

     Total force =     0.002212     Total SCF correction =     0.000099


     entering subroutine stress ...

          total   stress  (Ry/bohr**3)                   (kbar)     P=    0.83
   0.00000563  -0.00000005  -0.00000008          0.83     -0.01     -0.01
  -0.00000005   0.00000594   0.00000023         -0.01      0.87      0.03
  -0.00000008   0.00000023   0.00000541         -0.01      0.03      0.80


     Writing output data file template.save

     init_run     :      1.39s CPU      1.41s WALL (       1 calls)
     electrons    :     12.04s CPU     12.27s WALL (       1 calls)
     forces       :      0.16s CPU      0.16s WALL (       1 calls)
     stress       :      0.54s CPU      0.54s WALL (       1 calls)

     Called by init_run:
     wfcinit      :      0.85s CPU      0.86s WALL (       1 calls)
     potinit      :      0.10s CPU      0.11s WALL (       1 calls)

     Called by electrons:
     c_bands      :      9.65s CPU      9.85s WALL (       7 calls)
     sum_band     :      1.77s CPU      1.79s WALL (       7 calls)
     v_of_rho     :      0.08s CPU      0.08s WALL (       7 calls)
     newd         :      0.10s CPU      0.10s WALL (       7 calls)
     PAW_pot      :      0.46s CPU      0.47s WALL (       7 calls)
     mix_rho      :      0.05s CPU      0.05s WALL (       7 calls)

     Called by c_bands:
     init_us_2    :      0.23s CPU      0.24s WALL (    1071 calls)
     cegterg      :      9.37s CPU      9.58s WALL (     441 calls)

     Called by sum_band:
     sum_band:bec :      0.02s CPU      0.00s WALL (     441 calls)
     addusdens    :      0.12s CPU      0.12s WALL (       7 calls)

     Called by *egterg:
     h_psi        :      8.96s CPU      9.12s WALL (    1691 calls)
     s_psi        :      0.17s CPU      0.16s WALL (    1691 calls)
     g_psi        :      0.02s CPU      0.02s WALL (    1187 calls)
     cdiaghg      :      0.34s CPU      0.37s WALL (    1565 calls)

     Called by h_psi:
     h_psi:pot    :      8.94s CPU      9.09s WALL (    1691 calls)
     h_psi:calbec :      0.28s CPU      0.26s WALL (    1691 calls)
     vloc_psi     :      8.53s CPU      8.65s WALL (    1691 calls)
     add_vuspsi   :      0.14s CPU      0.18s WALL (    1691 calls)

     General routines
     calbec       :      0.40s CPU      0.40s WALL (    2447 calls)
     fft          :      0.09s CPU      0.09s WALL (     137 calls)
     ffts         :      0.04s CPU      0.03s WALL (      79 calls)
     fftw         :      9.48s CPU      9.66s WALL (   29898 calls)
     interpolate  :      0.01s CPU      0.02s WALL (      14 calls)
     davcio       :      0.00s CPU      0.00s WALL (      63 calls)

     Parallel routines
     fft_scatter  :      1.84s CPU      1.90s WALL (   30114 calls)

     PWSCF        :    15.24s CPU        15.60s WALL


   This run was terminated on:  15:50:20   9Jun2017            

=------------------------------------------------------------------------------=
   JOB DONE.
=------------------------------------------------------------------------------=
