
     Program PWSCF v.6.0 (svn rev. 13079) starts on  9Jun2017 at 15:52: 1 

     This program is part of the open-source Quantum ESPRESSO suite
     for quantum simulation of materials; please cite
         "P. Giannozzi et al., J. Phys.:Condens. Matter 21 395502 (2009);
          URL http://www.quantum-espresso.org", 
     in publications or presentations arising from this work. More details at
     http://www.quantum-espresso.org/quote

     Parallel version (MPI), running on     4 processors
     R & G space division:  proc/nbgrp/npool/nimage =       4
     Waiting for input...
     Reading input from standard input
Warning: card &IONS ignored
Warning: card ION_DYNAMICS='BFGS', ignored
Warning: card / ignored
Warning: card &CELL ignored
Warning: card CELL_DYNAMICS='BFGS', ignored
Warning: card PRESS = 0.0, ignored
Warning: card CELL_FACTOR = 2.0, ignored
Warning: card / ignored

     Current dimensions of program PWSCF are:
     Max number of different atomic species (ntypx) = 10
     Max number of k-points (npk) =  40000
     Max angular momentum in pseudopotentials (lmaxx) =  3
               file Al.pbe-nl-kjpaw_psl.1.0.0.UPF: wavefunction(s)  3S 3P renormalized
               file Al.pbe-nl-kjpaw_psl.1.0.0.UPF: wavefunction(s)  3S 3P renormalized
               file Al.pbe-nl-kjpaw_psl.1.0.0.UPF: wavefunction(s)  3S 3P renormalized
               file Al.pbe-nl-kjpaw_psl.1.0.0.UPF: wavefunction(s)  3S 3P renormalized

     Subspace diagonalization in iterative solution of the eigenvalue problem:
     a serial algorithm will be used


     Parallelization info
     --------------------
     sticks:   dense  smooth     PW     G-vecs:    dense   smooth      PW
     Min         232     164     49                 5310     3132     527
     Max         234     165     50                 5313     3135     528
     Sum         933     657    197                21247    12533    2109



     bravais-lattice index     =            0
     lattice parameter (alat)  =       7.6300  a.u.
     unit-cell volume          =     444.1949 (a.u.)^3
     number of atoms/cell      =            4
     number of atomic types    =            4
     number of electrons       =        12.00
     number of Kohn-Sham states=           10
     kinetic-energy cutoff     =      35.0000  Ry
     charge density cutoff     =     200.0000  Ry
     convergence threshold     =      1.0E-06
     mixing beta               =       0.3000
     number of iterations used =           10  local-TF  mixing
     Exchange-correlation      =  SLA  PW   PBX  PBC ( 1  4  3  4 0 0)

     celldm(1)=   7.630000  celldm(2)=   0.000000  celldm(3)=   0.000000
     celldm(4)=   0.000000  celldm(5)=   0.000000  celldm(6)=   0.000000

     crystal axes: (cart. coord. in units of alat)
               a(1) = (   1.000000   0.000000   0.000000 )  
               a(2) = (   0.000000   1.000000   0.000000 )  
               a(3) = (   0.000000   0.000000   1.000000 )  

     reciprocal axes: (cart. coord. in units 2 pi/alat)
               b(1) = (  1.000000  0.000000  0.000000 )  
               b(2) = (  0.000000  1.000000  0.000000 )  
               b(3) = (  0.000000  0.000000  1.000000 )  


     PseudoPot. # 1 for Al read from file:
     /home/ben/espresso/pp/Al.pbe-nl-kjpaw_psl.1.0.0.UPF
     MD5 check sum: 339dbea23cf3ab9a065ad45c0f9085d7
     Pseudo is Projector augmented-wave + core cor, Zval =  3.0
     Generated using "atomic" code by A. Dal Corso  v.5.1
     Shape of augmentation charge: PSQ
     Using radial grid of 1135 points,  4 beta functions with: 
                l(1) =   0
                l(2) =   0
                l(3) =   1
                l(4) =   1
     Q(r) pseudized with 0 coefficients 


     PseudoPot. # 2 for Al read from file:
     /home/ben/espresso/pp/Al.pbe-nl-kjpaw_psl.1.0.0.UPF
     MD5 check sum: 339dbea23cf3ab9a065ad45c0f9085d7
     Pseudo is Projector augmented-wave + core cor, Zval =  3.0
     Generated using "atomic" code by A. Dal Corso  v.5.1
     Shape of augmentation charge: PSQ
     Using radial grid of 1135 points,  4 beta functions with: 
                l(1) =   0
                l(2) =   0
                l(3) =   1
                l(4) =   1
     Q(r) pseudized with 0 coefficients 


     PseudoPot. # 3 for Al read from file:
     /home/ben/espresso/pp/Al.pbe-nl-kjpaw_psl.1.0.0.UPF
     MD5 check sum: 339dbea23cf3ab9a065ad45c0f9085d7
     Pseudo is Projector augmented-wave + core cor, Zval =  3.0
     Generated using "atomic" code by A. Dal Corso  v.5.1
     Shape of augmentation charge: PSQ
     Using radial grid of 1135 points,  4 beta functions with: 
                l(1) =   0
                l(2) =   0
                l(3) =   1
                l(4) =   1
     Q(r) pseudized with 0 coefficients 


     PseudoPot. # 4 for Al read from file:
     /home/ben/espresso/pp/Al.pbe-nl-kjpaw_psl.1.0.0.UPF
     MD5 check sum: 339dbea23cf3ab9a065ad45c0f9085d7
     Pseudo is Projector augmented-wave + core cor, Zval =  3.0
     Generated using "atomic" code by A. Dal Corso  v.5.1
     Shape of augmentation charge: PSQ
     Using radial grid of 1135 points,  4 beta functions with: 
                l(1) =   0
                l(2) =   0
                l(3) =   1
                l(4) =   1
     Q(r) pseudized with 0 coefficients 


     atomic species   valence    mass     pseudopotential
        Al1            3.00    26.98200     Al( 1.00)
        Al2            3.00    26.98200     Al( 1.00)
        Al3            3.00    26.98200     Al( 1.00)
        Al4            3.00    26.98200     Al( 1.00)

     No symmetry found



   Cartesian axes

     site n.     atom                  positions (alat units)
         1           Al1 tau(   1) = (   0.9991014   0.0002615   0.0018708  )
         2           Al2 tau(   2) = (   0.5021888   0.4947761   0.0019336  )
         3           Al3 tau(   3) = (   0.4974464   0.0008385   0.5081252  )
         4           Al4 tau(   4) = (   0.9994500   0.5060138   0.5050510  )

     number of k points=    63  Marzari-Vanderbilt smearing, width (Ry)=  0.0200
                       cart. coord. in units 2pi/alat
        k(    1) = (   0.1000000   0.1000000   0.1000000), wk =   0.0320000
        k(    2) = (   0.1000000   0.1000000   0.3000000), wk =   0.0320000
        k(    3) = (   0.1000000   0.1000000  -0.5000000), wk =   0.0320000
        k(    4) = (   0.1000000   0.3000000   0.3000000), wk =   0.0320000
        k(    5) = (   0.1000000   0.3000000  -0.5000000), wk =   0.0320000
        k(    6) = (   0.1000000  -0.5000000  -0.5000000), wk =   0.0320000
        k(    7) = (   0.3000000   0.3000000   0.3000000), wk =   0.0320000
        k(    8) = (   0.3000000   0.3000000  -0.5000000), wk =   0.0320000
        k(    9) = (   0.3000000  -0.5000000  -0.5000000), wk =   0.0320000
        k(   10) = (  -0.5000000  -0.5000000  -0.5000000), wk =   0.0160000
        k(   11) = (  -0.1000000  -0.1000000   0.1000000), wk =   0.0320000
        k(   12) = (  -0.1000000   0.1000000  -0.1000000), wk =   0.0320000
        k(   13) = (   0.1000000  -0.1000000  -0.1000000), wk =   0.0320000
        k(   14) = (  -0.1000000  -0.1000000   0.3000000), wk =   0.0320000
        k(   15) = (  -0.1000000   0.1000000  -0.3000000), wk =   0.0320000
        k(   16) = (   0.1000000  -0.1000000  -0.3000000), wk =   0.0320000
        k(   17) = (   0.3000000  -0.1000000   0.1000000), wk =   0.0320000
        k(   18) = (  -0.3000000  -0.1000000  -0.1000000), wk =   0.0320000
        k(   19) = (   0.3000000   0.1000000  -0.1000000), wk =   0.0320000
        k(   20) = (  -0.3000000   0.1000000   0.1000000), wk =   0.0320000
        k(   21) = (  -0.1000000   0.3000000   0.1000000), wk =   0.0320000
        k(   22) = (  -0.1000000  -0.3000000  -0.1000000), wk =   0.0320000
        k(   23) = (   0.1000000   0.3000000  -0.1000000), wk =   0.0320000
        k(   24) = (   0.1000000  -0.3000000   0.1000000), wk =   0.0320000
        k(   25) = (  -0.1000000   0.1000000   0.5000000), wk =   0.0320000
        k(   26) = (  -0.5000000  -0.1000000   0.1000000), wk =   0.0320000
        k(   27) = (   0.5000000  -0.1000000  -0.1000000), wk =   0.0320000
        k(   28) = (  -0.1000000  -0.5000000   0.1000000), wk =   0.0320000
        k(   29) = (  -0.1000000   0.5000000  -0.1000000), wk =   0.0320000
        k(   30) = (  -0.1000000  -0.3000000   0.3000000), wk =   0.0320000
        k(   31) = (  -0.1000000   0.3000000  -0.3000000), wk =   0.0320000
        k(   32) = (   0.1000000  -0.3000000  -0.3000000), wk =   0.0320000
        k(   33) = (   0.3000000   0.1000000  -0.3000000), wk =   0.0320000
        k(   34) = (  -0.3000000  -0.1000000  -0.3000000), wk =   0.0320000
        k(   35) = (   0.3000000  -0.1000000   0.3000000), wk =   0.0320000
        k(   36) = (  -0.3000000   0.1000000   0.3000000), wk =   0.0320000
        k(   37) = (   0.3000000  -0.3000000   0.1000000), wk =   0.0320000
        k(   38) = (  -0.3000000  -0.3000000  -0.1000000), wk =   0.0320000
        k(   39) = (   0.3000000   0.3000000  -0.1000000), wk =   0.0320000
        k(   40) = (  -0.3000000   0.3000000   0.1000000), wk =   0.0320000
        k(   41) = (  -0.1000000   0.3000000   0.5000000), wk =   0.0320000
        k(   42) = (   0.3000000   0.1000000   0.5000000), wk =   0.0320000
        k(   43) = (   0.3000000  -0.1000000  -0.5000000), wk =   0.0320000
        k(   44) = (  -0.5000000  -0.3000000   0.1000000), wk =   0.0320000
        k(   45) = (   0.5000000  -0.3000000  -0.1000000), wk =   0.0320000
        k(   46) = (  -0.1000000  -0.5000000   0.3000000), wk =   0.0320000
        k(   47) = (  -0.1000000   0.5000000  -0.3000000), wk =   0.0320000
        k(   48) = (   0.3000000  -0.5000000   0.1000000), wk =   0.0320000
        k(   49) = (   0.3000000   0.5000000  -0.1000000), wk =   0.0320000
        k(   50) = (  -0.5000000   0.1000000   0.3000000), wk =   0.0320000
        k(   51) = (   0.5000000  -0.1000000   0.3000000), wk =   0.0320000
        k(   52) = (  -0.5000000   0.1000000   0.5000000), wk =   0.0320000
        k(   53) = (  -0.5000000   0.5000000   0.1000000), wk =   0.0320000
        k(   54) = (  -0.3000000  -0.3000000   0.3000000), wk =   0.0320000
        k(   55) = (  -0.3000000   0.3000000  -0.3000000), wk =   0.0320000
        k(   56) = (   0.3000000  -0.3000000  -0.3000000), wk =   0.0320000
        k(   57) = (  -0.3000000   0.3000000   0.5000000), wk =   0.0320000
        k(   58) = (  -0.5000000  -0.3000000   0.3000000), wk =   0.0320000
        k(   59) = (   0.5000000  -0.3000000  -0.3000000), wk =   0.0320000
        k(   60) = (  -0.3000000  -0.5000000   0.3000000), wk =   0.0320000
        k(   61) = (  -0.3000000   0.5000000  -0.3000000), wk =   0.0320000
        k(   62) = (  -0.5000000   0.3000000   0.5000000), wk =   0.0320000
        k(   63) = (  -0.5000000   0.5000000   0.3000000), wk =   0.0320000

     Dense  grid:    21247 G-vectors     FFT dimensions: (  36,  36,  36)

     Smooth grid:    12533 G-vectors     FFT dimensions: (  30,  30,  30)

     Estimated max dynamical RAM per process >       9.70Mb

     Estimated total allocated dynamical RAM >      38.81Mb

     Initial potential from superposition of free atoms

     starting charge   11.99084, renormalised to   12.00000
     Starting wfc are   16 randomized atomic wfcs
     Checking if some PAW data can be deallocated... 

     total cpu time spent up to now is        6.0 secs

     per-process dynamical memory:    16.8 Mb

     Self-consistent Calculation

     iteration #  1     ecut=    35.00 Ry     beta=0.30
     Davidson diagonalization with overlap
     ethr =  1.00E-02,  avg # of iterations =  3.1

     Threshold (ethr) on eigenvalues was too large:
     Diagonalizing with lowered threshold

     Davidson diagonalization with overlap
     ethr =  1.96E-04,  avg # of iterations =  3.5

     total cpu time spent up to now is        9.5 secs

     total energy              =    -158.00327180 Ry
     Harris-Foulkes estimate   =    -158.00570035 Ry
     estimated scf accuracy    <       0.02291850 Ry

     iteration #  2     ecut=    35.00 Ry     beta=0.30
     Davidson diagonalization with overlap
     ethr =  1.91E-04,  avg # of iterations =  1.3

     total cpu time spent up to now is       10.9 secs

     total energy              =    -157.99885984 Ry
     Harris-Foulkes estimate   =    -158.00341935 Ry
     estimated scf accuracy    <       0.01423737 Ry

     iteration #  3     ecut=    35.00 Ry     beta=0.30
     Davidson diagonalization with overlap
     ethr =  1.19E-04,  avg # of iterations =  1.6

     total cpu time spent up to now is       12.4 secs

     total energy              =    -157.99916007 Ry
     Harris-Foulkes estimate   =    -157.99921589 Ry
     estimated scf accuracy    <       0.00002895 Ry

     iteration #  4     ecut=    35.00 Ry     beta=0.30
     Davidson diagonalization with overlap
     c_bands:  1 eigenvalues not converged
     ethr =  2.41E-07,  avg # of iterations =  7.2

     total cpu time spent up to now is       15.2 secs

     total energy              =    -157.99922304 Ry
     Harris-Foulkes estimate   =    -157.99923966 Ry
     estimated scf accuracy    <       0.00001959 Ry

     iteration #  5     ecut=    35.00 Ry     beta=0.30
     Davidson diagonalization with overlap
     ethr =  1.63E-07,  avg # of iterations =  1.3

     total cpu time spent up to now is       16.5 secs

     total energy              =    -157.99921089 Ry
     Harris-Foulkes estimate   =    -157.99922363 Ry
     estimated scf accuracy    <       0.00000804 Ry

     iteration #  6     ecut=    35.00 Ry     beta=0.30
     Davidson diagonalization with overlap
     ethr =  6.70E-08,  avg # of iterations =  2.0

     total cpu time spent up to now is       18.2 secs

     End of self-consistent calculation

          k = 0.1000 0.1000 0.1000 (  1542 PWs)   bands (ev):

    -2.9543   4.0275   4.0606   4.0925   7.7291   7.7664   7.8024  10.7487
    10.7883  10.8307

          k = 0.1000 0.1000 0.3000 (  1532 PWs)   bands (ev):

    -2.2312   1.3296   4.7196   4.7664   8.0104   8.0938   8.5592   8.5680
    11.3805  11.8134

          k = 0.1000 0.1000-0.5000 (  1556 PWs)   bands (ev):

    -0.8426  -0.7469   5.9652   5.9843   6.2348   6.2540   9.5286   9.5339
    10.2073  10.2127

          k = 0.1000 0.3000 0.3000 (  1565 PWs)   bands (ev):

    -1.5114   2.0097   2.0520   5.3262   5.5971   8.7900   8.8486   9.1753
    12.1503  12.1842

          k = 0.1000 0.3000-0.5000 (  1560 PWs)   bands (ev):

    -0.1300  -0.0343   3.3747   3.4720   6.7488   6.8527  10.1131  10.2221
    10.4710  10.5608

          k = 0.1000-0.5000-0.5000 (  1548 PWs)   bands (ev):

     1.2759   1.2876   1.3791   1.3878   8.0896   8.1047   8.2062   8.2176
    11.8074  11.8166

          k = 0.3000 0.3000 0.3000 (  1556 PWs)   bands (ev):

    -0.7952   2.6938   2.7292   2.7632   6.1508   6.1878   6.2255   9.5750
    13.0624  13.1017

          k = 0.3000 0.3000-0.5000 (  1546 PWs)   bands (ev):

     0.5792   0.6751   3.9770   3.9950   4.2542   4.2720   7.5006   7.6029
    14.1848  14.1975

          k = 0.3000-0.5000-0.5000 (  1564 PWs)   bands (ev):

     1.9779   1.9896   2.0812   2.0899   5.4505   5.4628   5.5574   5.5664
    15.5984  15.6107

          k =-0.5000-0.5000-0.5000 (  1568 PWs)   bands (ev):

     3.2990   3.3071   3.3179   3.3229   3.5502   3.5555   3.5643   3.5741
    19.2649  19.2899

          k =-0.1000-0.1000 0.1000 (  1542 PWs)   bands (ev):

    -2.9544   4.0342   4.0606   4.0856   7.7368   7.7666   7.7948  10.7573
    10.7881  10.8221

          k =-0.1000 0.1000-0.1000 (  1542 PWs)   bands (ev):

    -2.9544   4.0408   4.0605   4.0789   7.7446   7.7664   7.7874  10.7651
    10.7892  10.8130

          k = 0.1000-0.1000-0.1000 (  1542 PWs)   bands (ev):

    -2.9544   4.0375   4.0601   4.0827   7.7404   7.7663   7.7913  10.7610
    10.7886  10.8180

          k =-0.1000-0.1000 0.3000 (  1532 PWs)   bands (ev):

    -2.2312   1.3296   4.7195   4.7663   8.0114   8.0949   8.5583   8.5671
    11.3801  11.8228

          k =-0.1000 0.1000-0.3000 (  1532 PWs)   bands (ev):

    -2.2312   1.3296   4.7321   4.7535   8.0338   8.0720   8.5609   8.5650
    11.3802  11.8198

          k = 0.1000-0.1000-0.3000 (  1532 PWs)   bands (ev):

    -2.2312   1.3296   4.7322   4.7536   8.0319   8.0701   8.5628   8.5668
    11.3798  11.8168

          k = 0.3000-0.1000 0.1000 (  1532 PWs)   bands (ev):

    -2.2309   1.3285   4.7327   4.7545   8.0326   8.0714   8.5614   8.5655
    11.3823  11.8114

          k =-0.3000-0.1000-0.1000 (  1532 PWs)   bands (ev):

    -2.2309   1.3284   4.7239   4.7637   8.0165   8.0876   8.5593   8.5668
    11.3801  11.7980

          k = 0.3000 0.1000-0.1000 (  1532 PWs)   bands (ev):

    -2.2309   1.3284   4.7328   4.7545   8.0325   8.0712   8.5612   8.5653
    11.3827  11.8153

          k =-0.3000 0.1000 0.1000 (  1532 PWs)   bands (ev):

    -2.2309   1.3285   4.7238   4.7636   8.0165   8.0876   8.5594   8.5670
    11.3789  11.8205

          k =-0.1000 0.3000 0.1000 (  1532 PWs)   bands (ev):

    -2.2309   1.3284   4.7406   4.7468   8.0465   8.0573   8.5623   8.5640
    11.3810  11.7918

          k =-0.1000-0.3000-0.1000 (  1532 PWs)   bands (ev):

    -2.2309   1.3284   4.7322   4.7555   8.0312   8.0728   8.5607   8.5650
    11.3828  11.7864

          k = 0.1000 0.3000-0.1000 (  1532 PWs)   bands (ev):

    -2.2309   1.3284   4.7407   4.7467   8.0469   8.0577   8.5624   8.5637
    11.3817  11.7716

          k = 0.1000-0.3000 0.1000 (  1532 PWs)   bands (ev):

    -2.2310   1.3285   4.7320   4.7552   8.0319   8.0735   8.5606   8.5649
    11.3819  11.7778

          k =-0.1000 0.1000 0.5000 (  1556 PWs)   bands (ev):

    -0.8426  -0.7469   5.9714   5.9804   6.2386   6.2475   9.5308   9.5334
    10.2081  10.2106

          k =-0.5000-0.1000 0.1000 (  1556 PWs)   bands (ev):

    -0.8007  -0.7897   5.9853   5.9864   6.2322   6.2341   9.5341   9.5344
    10.2059  10.2073

          k = 0.5000-0.1000-0.1000 (  1556 PWs)   bands (ev):

    -0.8007  -0.7897   5.9841   5.9862   6.2329   6.2351   9.5339   9.5343
    10.2057  10.2063

          k =-0.1000-0.5000 0.1000 (  1556 PWs)   bands (ev):

    -0.7970  -0.7934   5.9858   5.9878   6.2313   6.2332   9.5329   9.5354
    10.2056  10.2074

          k =-0.1000 0.5000-0.1000 (  1556 PWs)   bands (ev):

    -0.7970  -0.7934   5.9852   5.9873   6.2320   6.2338   9.5325   9.5351
    10.2062  10.2078

          k =-0.1000-0.3000 0.3000 (  1565 PWs)   bands (ev):

    -1.5115   2.0192   2.0423   5.3265   5.5971   8.8026   8.8346   9.1765
    12.1652  12.1914

          k =-0.1000 0.3000-0.3000 (  1565 PWs)   bands (ev):

    -1.5115   2.0192   2.0424   5.3262   5.5972   8.8031   8.8351   9.1754
    12.1672  12.1903

          k = 0.1000-0.3000-0.3000 (  1565 PWs)   bands (ev):

    -1.5115   2.0098   2.0520   5.3260   5.5972   8.7892   8.8478   9.1769
    12.1538  12.1793

          k = 0.3000 0.1000-0.3000 (  1565 PWs)   bands (ev):

    -1.5115   2.0275   2.0341   5.3261   5.5973   8.8130   8.8228   9.1783
    12.1593  12.2099

          k =-0.3000-0.1000-0.3000 (  1565 PWs)   bands (ev):

    -1.5114   2.0184   2.0431   5.3266   5.5971   8.7991   8.8336   9.1814
    12.1591  12.1909

          k = 0.3000-0.1000 0.3000 (  1565 PWs)   bands (ev):

    -1.5115   2.0185   2.0432   5.3260   5.5974   8.8004   8.8348   9.1789
    12.1625  12.1903

          k =-0.3000 0.1000 0.3000 (  1565 PWs)   bands (ev):

    -1.5115   2.0275   2.0341   5.3263   5.5972   8.8108   8.8213   9.1820
    12.1589  12.2088

          k = 0.3000-0.3000 0.1000 (  1565 PWs)   bands (ev):

    -1.5112   2.0190   2.0418   5.3263   5.5971   8.8040   8.8355   9.1761
    12.1632  12.1911

          k =-0.3000-0.3000-0.1000 (  1565 PWs)   bands (ev):

    -1.5112   2.0056   2.0553   5.3267   5.5969   8.7853   8.8541   9.1757
    12.1544  12.1757

          k = 0.3000 0.3000-0.1000 (  1565 PWs)   bands (ev):

    -1.5112   2.0056   2.0553   5.3263   5.5971   8.7853   8.8542   9.1760
    12.1574  12.1726

          k =-0.3000 0.3000 0.1000 (  1565 PWs)   bands (ev):

    -1.5112   2.0190   2.0418   5.3267   5.5969   8.8038   8.8353   9.1754
    12.1627  12.1942

          k =-0.1000 0.3000 0.5000 (  1560 PWs)   bands (ev):

    -0.1300  -0.0343   3.3747   3.4721   6.7486   6.8525  10.1128  10.2216
    10.4718  10.5614

          k = 0.3000 0.1000 0.5000 (  1560 PWs)   bands (ev):

    -0.1300  -0.0342   3.3746   3.4719   6.7488   6.8527  10.1115  10.2207
    10.4724  10.5624

          k = 0.3000-0.1000-0.5000 (  1560 PWs)   bands (ev):

    -0.1300  -0.0342   3.3747   3.4720   6.7486   6.8526  10.1112  10.2203
    10.4730  10.5630

          k =-0.5000-0.3000 0.1000 (  1560 PWs)   bands (ev):

    -0.0881  -0.0771   3.4174   3.4286   6.7949   6.8069  10.1627  10.1753
    10.5102  10.5205

          k = 0.5000-0.3000-0.1000 (  1560 PWs)   bands (ev):

    -0.0881  -0.0771   3.4174   3.4286   6.7951   6.8071  10.1588  10.1715
    10.5133  10.5245

          k =-0.1000-0.5000 0.3000 (  1560 PWs)   bands (ev):

    -0.0847  -0.0810   3.4223   3.4259   6.7976   6.8018  10.1656  10.1699
    10.5144  10.5177

          k =-0.1000 0.5000-0.3000 (  1560 PWs)   bands (ev):

    -0.0847  -0.0810   3.4223   3.4259   6.7976   6.8018  10.1669  10.1708
    10.5130  10.5169

          k = 0.3000-0.5000 0.1000 (  1560 PWs)   bands (ev):

    -0.0844  -0.0808   3.4211   3.4249   6.7991   6.8029  10.1649  10.1707
    10.5145  10.5183

          k = 0.3000 0.5000-0.1000 (  1560 PWs)   bands (ev):

    -0.0844  -0.0808   3.4211   3.4249   6.7991   6.8029  10.1631  10.1699
    10.5151  10.5204

          k =-0.5000 0.1000 0.3000 (  1560 PWs)   bands (ev):

    -0.0883  -0.0773   3.4184   3.4296   6.7940   6.8059  10.1580  10.1707
    10.5138  10.5244

          k = 0.5000-0.1000 0.3000 (  1560 PWs)   bands (ev):

    -0.0883  -0.0773   3.4184   3.4296   6.7938   6.8057  10.1613  10.1742
    10.5111  10.5214

          k =-0.5000 0.1000 0.5000 (  1548 PWs)   bands (ev):

     1.2769   1.2907   1.3738   1.3888   8.0921   8.1087   8.1995   8.2175
    11.8077  11.8188

          k =-0.5000 0.5000 0.1000 (  1548 PWs)   bands (ev):

     1.3063   1.3197   1.3440   1.3587   8.1213   8.1389   8.1704   8.1893
    11.8479  11.8514

          k =-0.3000-0.3000 0.3000 (  1556 PWs)   bands (ev):

    -0.7952   2.7009   2.7294   2.7557   6.1590   6.1872   6.2181   9.5754
    13.0702  13.1016

          k =-0.3000 0.3000-0.3000 (  1556 PWs)   bands (ev):

    -0.7953   2.7082   2.7290   2.7487   6.1662   6.1884   6.2098   9.5755
    13.0800  13.1041

          k = 0.3000-0.3000-0.3000 (  1556 PWs)   bands (ev):

    -0.7953   2.7046   2.7287   2.7528   6.1621   6.1881   6.2140   9.5749
    13.0745  13.1014

          k =-0.3000 0.3000 0.5000 (  1546 PWs)   bands (ev):

     0.5792   0.6751   3.9832   3.9917   4.2575   4.2656   7.5007   7.6030
    14.1897  14.1963

          k =-0.5000-0.3000 0.3000 (  1546 PWs)   bands (ev):

     0.6209   0.6319   3.9958   3.9968   4.2518   4.2535   7.5468   7.5587
    14.1964  14.1972

          k = 0.5000-0.3000-0.3000 (  1546 PWs)   bands (ev):

     0.6209   0.6320   3.9943   3.9962   4.2527   4.2548   7.5465   7.5583
    14.1967  14.1972

          k =-0.3000-0.5000 0.3000 (  1546 PWs)   bands (ev):

     0.6245   0.6283   3.9961   3.9979   4.2511   4.2528   7.5507   7.5545
    14.6042  14.6066

          k =-0.3000 0.5000-0.3000 (  1546 PWs)   bands (ev):

     0.6245   0.6283   3.9955   3.9974   4.2518   4.2534   7.5508   7.5546
    14.1948  14.1982

          k =-0.5000 0.3000 0.5000 (  1564 PWs)   bands (ev):

     1.9789   1.9927   2.0759   2.0909   5.4518   5.4661   5.5519   5.5675
    15.6026  15.6177

          k =-0.5000 0.5000 0.3000 (  1564 PWs)   bands (ev):

     2.0083   2.0215   2.0457   2.0603   5.4831   5.4970   5.5223   5.5375
    15.6475  15.6655

     the Fermi energy is     8.0728 ev

!    total energy              =    -157.99921271 Ry
     Harris-Foulkes estimate   =    -157.99921283 Ry
     estimated scf accuracy    <       0.00000016 Ry

     total all-electron energy =     -1942.570340 Ry

     The total energy is the sum of the following terms:

     one-electron contribution =      12.68569279 Ry
     hartree contribution      =       0.02471191 Ry
     xc contribution           =     -10.36813628 Ry
     ewald contribution        =     -21.63072380 Ry
     one-center paw contrib.   =    -138.70902264 Ry
     smearing contrib. (-TS)   =      -0.00173469 Ry

     convergence has been achieved in   6 iterations

     Forces acting on atoms (Ry/au):

     atom    1 type  1   force =     0.00045063   -0.00000275    0.00322505
     atom    2 type  2   force =    -0.00137451    0.00243973    0.00320026
     atom    3 type  3   force =     0.00060525   -0.00021357   -0.00386643
     atom    4 type  4   force =     0.00031864   -0.00222341   -0.00255888

     Total force =     0.007459     Total SCF correction =     0.000056


     entering subroutine stress ...

          total   stress  (Ry/bohr**3)                   (kbar)     P=    1.20
   0.00000784  -0.00000066  -0.00000101          1.15     -0.10     -0.15
  -0.00000066   0.00001127   0.00000252         -0.10      1.66      0.37
  -0.00000101   0.00000252   0.00000533         -0.15      0.37      0.78


     Writing output data file template.save

     init_run     :      2.85s CPU      2.88s WALL (       1 calls)
     electrons    :     12.02s CPU     12.22s WALL (       1 calls)
     forces       :      0.16s CPU      0.16s WALL (       1 calls)
     stress       :      0.52s CPU      0.53s WALL (       1 calls)

     Called by init_run:
     wfcinit      :      1.22s CPU      1.23s WALL (       1 calls)
     potinit      :      0.35s CPU      0.36s WALL (       1 calls)

     Called by electrons:
     c_bands      :      9.67s CPU      9.83s WALL (       7 calls)
     sum_band     :      1.73s CPU      1.76s WALL (       7 calls)
     v_of_rho     :      0.11s CPU      0.11s WALL (       7 calls)
     newd         :      0.12s CPU      0.12s WALL (       7 calls)
     PAW_pot      :      0.61s CPU      0.63s WALL (       7 calls)
     mix_rho      :      0.04s CPU      0.05s WALL (       7 calls)

     Called by c_bands:
     init_us_2    :      0.24s CPU      0.24s WALL (    1071 calls)
     cegterg      :      9.43s CPU      9.56s WALL (     441 calls)

     Called by sum_band:
     sum_band:bec :      0.00s CPU      0.00s WALL (     441 calls)
     addusdens    :      0.11s CPU      0.12s WALL (       7 calls)

     Called by *egterg:
     h_psi        :      9.27s CPU      9.39s WALL (    1770 calls)
     s_psi        :      0.18s CPU      0.17s WALL (    1770 calls)
     g_psi        :      0.03s CPU      0.02s WALL (    1266 calls)
     cdiaghg      :      0.42s CPU      0.39s WALL (    1644 calls)

     Called by h_psi:
     h_psi:pot    :      9.25s CPU      9.36s WALL (    1770 calls)
     h_psi:calbec :      0.24s CPU      0.26s WALL (    1770 calls)
     vloc_psi     :      8.84s CPU      8.91s WALL (    1770 calls)
     add_vuspsi   :      0.16s CPU      0.19s WALL (    1770 calls)

     General routines
     calbec       :      0.41s CPU      0.41s WALL (    2526 calls)
     fft          :      0.12s CPU      0.13s WALL (     137 calls)
     ffts         :      0.03s CPU      0.04s WALL (      79 calls)
     fftw         :      9.75s CPU      9.89s WALL (   30352 calls)
     interpolate  :      0.02s CPU      0.02s WALL (      14 calls)
     davcio       :      0.00s CPU      0.00s WALL (      63 calls)

     Parallel routines
     fft_scatter  :      1.86s CPU      1.97s WALL (   30568 calls)

     PWSCF        :    18.73s CPU        19.15s WALL


   This run was terminated on:  15:52:21   9Jun2017            

=------------------------------------------------------------------------------=
   JOB DONE.
=------------------------------------------------------------------------------=
