
     Program PWSCF v.6.0 (svn rev. 13079) starts on  9Jun2017 at 15:56:24 

     This program is part of the open-source Quantum ESPRESSO suite
     for quantum simulation of materials; please cite
         "P. Giannozzi et al., J. Phys.:Condens. Matter 21 395502 (2009);
          URL http://www.quantum-espresso.org", 
     in publications or presentations arising from this work. More details at
     http://www.quantum-espresso.org/quote

     Parallel version (MPI), running on     4 processors
     R & G space division:  proc/nbgrp/npool/nimage =       4
     Waiting for input...
     Reading input from standard input
Warning: card &IONS ignored
Warning: card ION_DYNAMICS='BFGS', ignored
Warning: card / ignored
Warning: card &CELL ignored
Warning: card CELL_DYNAMICS='BFGS', ignored
Warning: card PRESS = 0.0, ignored
Warning: card CELL_FACTOR = 2.0, ignored
Warning: card / ignored

     Current dimensions of program PWSCF are:
     Max number of different atomic species (ntypx) = 10
     Max number of k-points (npk) =  40000
     Max angular momentum in pseudopotentials (lmaxx) =  3
               file Al.pbe-nl-kjpaw_psl.1.0.0.UPF: wavefunction(s)  3S 3P renormalized
               file Al.pbe-nl-kjpaw_psl.1.0.0.UPF: wavefunction(s)  3S 3P renormalized
               file Al.pbe-nl-kjpaw_psl.1.0.0.UPF: wavefunction(s)  3S 3P renormalized
               file Al.pbe-nl-kjpaw_psl.1.0.0.UPF: wavefunction(s)  3S 3P renormalized

     Subspace diagonalization in iterative solution of the eigenvalue problem:
     a serial algorithm will be used


     Parallelization info
     --------------------
     sticks:   dense  smooth     PW     G-vecs:    dense   smooth      PW
     Min         232     164     49                 5310     3132     527
     Max         234     165     50                 5313     3135     528
     Sum         933     657    197                21247    12533    2109



     bravais-lattice index     =            0
     lattice parameter (alat)  =       7.6300  a.u.
     unit-cell volume          =     444.1949 (a.u.)^3
     number of atoms/cell      =            4
     number of atomic types    =            4
     number of electrons       =        12.00
     number of Kohn-Sham states=           10
     kinetic-energy cutoff     =      35.0000  Ry
     charge density cutoff     =     200.0000  Ry
     convergence threshold     =      1.0E-06
     mixing beta               =       0.3000
     number of iterations used =           10  local-TF  mixing
     Exchange-correlation      =  SLA  PW   PBX  PBC ( 1  4  3  4 0 0)

     celldm(1)=   7.630000  celldm(2)=   0.000000  celldm(3)=   0.000000
     celldm(4)=   0.000000  celldm(5)=   0.000000  celldm(6)=   0.000000

     crystal axes: (cart. coord. in units of alat)
               a(1) = (   1.000000   0.000000   0.000000 )  
               a(2) = (   0.000000   1.000000   0.000000 )  
               a(3) = (   0.000000   0.000000   1.000000 )  

     reciprocal axes: (cart. coord. in units 2 pi/alat)
               b(1) = (  1.000000  0.000000  0.000000 )  
               b(2) = (  0.000000  1.000000  0.000000 )  
               b(3) = (  0.000000  0.000000  1.000000 )  


     PseudoPot. # 1 for Al read from file:
     /home/ben/espresso/pp/Al.pbe-nl-kjpaw_psl.1.0.0.UPF
     MD5 check sum: 339dbea23cf3ab9a065ad45c0f9085d7
     Pseudo is Projector augmented-wave + core cor, Zval =  3.0
     Generated using "atomic" code by A. Dal Corso  v.5.1
     Shape of augmentation charge: PSQ
     Using radial grid of 1135 points,  4 beta functions with: 
                l(1) =   0
                l(2) =   0
                l(3) =   1
                l(4) =   1
     Q(r) pseudized with 0 coefficients 


     PseudoPot. # 2 for Al read from file:
     /home/ben/espresso/pp/Al.pbe-nl-kjpaw_psl.1.0.0.UPF
     MD5 check sum: 339dbea23cf3ab9a065ad45c0f9085d7
     Pseudo is Projector augmented-wave + core cor, Zval =  3.0
     Generated using "atomic" code by A. Dal Corso  v.5.1
     Shape of augmentation charge: PSQ
     Using radial grid of 1135 points,  4 beta functions with: 
                l(1) =   0
                l(2) =   0
                l(3) =   1
                l(4) =   1
     Q(r) pseudized with 0 coefficients 


     PseudoPot. # 3 for Al read from file:
     /home/ben/espresso/pp/Al.pbe-nl-kjpaw_psl.1.0.0.UPF
     MD5 check sum: 339dbea23cf3ab9a065ad45c0f9085d7
     Pseudo is Projector augmented-wave + core cor, Zval =  3.0
     Generated using "atomic" code by A. Dal Corso  v.5.1
     Shape of augmentation charge: PSQ
     Using radial grid of 1135 points,  4 beta functions with: 
                l(1) =   0
                l(2) =   0
                l(3) =   1
                l(4) =   1
     Q(r) pseudized with 0 coefficients 


     PseudoPot. # 4 for Al read from file:
     /home/ben/espresso/pp/Al.pbe-nl-kjpaw_psl.1.0.0.UPF
     MD5 check sum: 339dbea23cf3ab9a065ad45c0f9085d7
     Pseudo is Projector augmented-wave + core cor, Zval =  3.0
     Generated using "atomic" code by A. Dal Corso  v.5.1
     Shape of augmentation charge: PSQ
     Using radial grid of 1135 points,  4 beta functions with: 
                l(1) =   0
                l(2) =   0
                l(3) =   1
                l(4) =   1
     Q(r) pseudized with 0 coefficients 


     atomic species   valence    mass     pseudopotential
        Al1            3.00    26.98200     Al( 1.00)
        Al2            3.00    26.98200     Al( 1.00)
        Al3            3.00    26.98200     Al( 1.00)
        Al4            3.00    26.98200     Al( 1.00)

     No symmetry found



   Cartesian axes

     site n.     atom                  positions (alat units)
         1           Al1 tau(   1) = (   0.9988953   0.0003214   0.0022999  )
         2           Al2 tau(   2) = (   0.5026909   0.4935777   0.0023772  )
         3           Al3 tau(   3) = (   0.4968607   0.0010308   0.5099891  )
         4           Al4 tau(   4) = (   0.9993238   0.5073934   0.5062097  )

     number of k points=    63  Marzari-Vanderbilt smearing, width (Ry)=  0.0200
                       cart. coord. in units 2pi/alat
        k(    1) = (   0.1000000   0.1000000   0.1000000), wk =   0.0320000
        k(    2) = (   0.1000000   0.1000000   0.3000000), wk =   0.0320000
        k(    3) = (   0.1000000   0.1000000  -0.5000000), wk =   0.0320000
        k(    4) = (   0.1000000   0.3000000   0.3000000), wk =   0.0320000
        k(    5) = (   0.1000000   0.3000000  -0.5000000), wk =   0.0320000
        k(    6) = (   0.1000000  -0.5000000  -0.5000000), wk =   0.0320000
        k(    7) = (   0.3000000   0.3000000   0.3000000), wk =   0.0320000
        k(    8) = (   0.3000000   0.3000000  -0.5000000), wk =   0.0320000
        k(    9) = (   0.3000000  -0.5000000  -0.5000000), wk =   0.0320000
        k(   10) = (  -0.5000000  -0.5000000  -0.5000000), wk =   0.0160000
        k(   11) = (  -0.1000000  -0.1000000   0.1000000), wk =   0.0320000
        k(   12) = (  -0.1000000   0.1000000  -0.1000000), wk =   0.0320000
        k(   13) = (   0.1000000  -0.1000000  -0.1000000), wk =   0.0320000
        k(   14) = (  -0.1000000  -0.1000000   0.3000000), wk =   0.0320000
        k(   15) = (  -0.1000000   0.1000000  -0.3000000), wk =   0.0320000
        k(   16) = (   0.1000000  -0.1000000  -0.3000000), wk =   0.0320000
        k(   17) = (   0.3000000  -0.1000000   0.1000000), wk =   0.0320000
        k(   18) = (  -0.3000000  -0.1000000  -0.1000000), wk =   0.0320000
        k(   19) = (   0.3000000   0.1000000  -0.1000000), wk =   0.0320000
        k(   20) = (  -0.3000000   0.1000000   0.1000000), wk =   0.0320000
        k(   21) = (  -0.1000000   0.3000000   0.1000000), wk =   0.0320000
        k(   22) = (  -0.1000000  -0.3000000  -0.1000000), wk =   0.0320000
        k(   23) = (   0.1000000   0.3000000  -0.1000000), wk =   0.0320000
        k(   24) = (   0.1000000  -0.3000000   0.1000000), wk =   0.0320000
        k(   25) = (  -0.1000000   0.1000000   0.5000000), wk =   0.0320000
        k(   26) = (  -0.5000000  -0.1000000   0.1000000), wk =   0.0320000
        k(   27) = (   0.5000000  -0.1000000  -0.1000000), wk =   0.0320000
        k(   28) = (  -0.1000000  -0.5000000   0.1000000), wk =   0.0320000
        k(   29) = (  -0.1000000   0.5000000  -0.1000000), wk =   0.0320000
        k(   30) = (  -0.1000000  -0.3000000   0.3000000), wk =   0.0320000
        k(   31) = (  -0.1000000   0.3000000  -0.3000000), wk =   0.0320000
        k(   32) = (   0.1000000  -0.3000000  -0.3000000), wk =   0.0320000
        k(   33) = (   0.3000000   0.1000000  -0.3000000), wk =   0.0320000
        k(   34) = (  -0.3000000  -0.1000000  -0.3000000), wk =   0.0320000
        k(   35) = (   0.3000000  -0.1000000   0.3000000), wk =   0.0320000
        k(   36) = (  -0.3000000   0.1000000   0.3000000), wk =   0.0320000
        k(   37) = (   0.3000000  -0.3000000   0.1000000), wk =   0.0320000
        k(   38) = (  -0.3000000  -0.3000000  -0.1000000), wk =   0.0320000
        k(   39) = (   0.3000000   0.3000000  -0.1000000), wk =   0.0320000
        k(   40) = (  -0.3000000   0.3000000   0.1000000), wk =   0.0320000
        k(   41) = (  -0.1000000   0.3000000   0.5000000), wk =   0.0320000
        k(   42) = (   0.3000000   0.1000000   0.5000000), wk =   0.0320000
        k(   43) = (   0.3000000  -0.1000000  -0.5000000), wk =   0.0320000
        k(   44) = (  -0.5000000  -0.3000000   0.1000000), wk =   0.0320000
        k(   45) = (   0.5000000  -0.3000000  -0.1000000), wk =   0.0320000
        k(   46) = (  -0.1000000  -0.5000000   0.3000000), wk =   0.0320000
        k(   47) = (  -0.1000000   0.5000000  -0.3000000), wk =   0.0320000
        k(   48) = (   0.3000000  -0.5000000   0.1000000), wk =   0.0320000
        k(   49) = (   0.3000000   0.5000000  -0.1000000), wk =   0.0320000
        k(   50) = (  -0.5000000   0.1000000   0.3000000), wk =   0.0320000
        k(   51) = (   0.5000000  -0.1000000   0.3000000), wk =   0.0320000
        k(   52) = (  -0.5000000   0.1000000   0.5000000), wk =   0.0320000
        k(   53) = (  -0.5000000   0.5000000   0.1000000), wk =   0.0320000
        k(   54) = (  -0.3000000  -0.3000000   0.3000000), wk =   0.0320000
        k(   55) = (  -0.3000000   0.3000000  -0.3000000), wk =   0.0320000
        k(   56) = (   0.3000000  -0.3000000  -0.3000000), wk =   0.0320000
        k(   57) = (  -0.3000000   0.3000000   0.5000000), wk =   0.0320000
        k(   58) = (  -0.5000000  -0.3000000   0.3000000), wk =   0.0320000
        k(   59) = (   0.5000000  -0.3000000  -0.3000000), wk =   0.0320000
        k(   60) = (  -0.3000000  -0.5000000   0.3000000), wk =   0.0320000
        k(   61) = (  -0.3000000   0.5000000  -0.3000000), wk =   0.0320000
        k(   62) = (  -0.5000000   0.3000000   0.5000000), wk =   0.0320000
        k(   63) = (  -0.5000000   0.5000000   0.3000000), wk =   0.0320000

     Dense  grid:    21247 G-vectors     FFT dimensions: (  36,  36,  36)

     Smooth grid:    12533 G-vectors     FFT dimensions: (  30,  30,  30)

     Estimated max dynamical RAM per process >       9.70Mb

     Estimated total allocated dynamical RAM >      38.81Mb

     Initial potential from superposition of free atoms

     starting charge   11.99084, renormalised to   12.00000
     Starting wfc are   16 randomized atomic wfcs
     Checking if some PAW data can be deallocated... 

     total cpu time spent up to now is        2.3 secs

     per-process dynamical memory:    16.8 Mb

     Self-consistent Calculation

     iteration #  1     ecut=    35.00 Ry     beta=0.30
     Davidson diagonalization with overlap
     ethr =  1.00E-02,  avg # of iterations =  3.1

     Threshold (ethr) on eigenvalues was too large:
     Diagonalizing with lowered threshold

     Davidson diagonalization with overlap
     ethr =  1.97E-04,  avg # of iterations =  3.6

     total cpu time spent up to now is        6.5 secs

     total energy              =    -158.00316223 Ry
     Harris-Foulkes estimate   =    -158.00560604 Ry
     estimated scf accuracy    <       0.02302135 Ry

     iteration #  2     ecut=    35.00 Ry     beta=0.30
     Davidson diagonalization with overlap
     ethr =  1.92E-04,  avg # of iterations =  1.4

     total cpu time spent up to now is       11.1 secs

     total energy              =    -157.99872048 Ry
     Harris-Foulkes estimate   =    -158.00331194 Ry
     estimated scf accuracy    <       0.01429801 Ry

     iteration #  3     ecut=    35.00 Ry     beta=0.30
     Davidson diagonalization with overlap
     ethr =  1.19E-04,  avg # of iterations =  1.4

     total cpu time spent up to now is       15.6 secs

     total energy              =    -157.99903445 Ry
     Harris-Foulkes estimate   =    -157.99908950 Ry
     estimated scf accuracy    <       0.00002944 Ry

     iteration #  4     ecut=    35.00 Ry     beta=0.30
     Davidson diagonalization with overlap
     c_bands:  2 eigenvalues not converged
     c_bands:  1 eigenvalues not converged
     ethr =  2.45E-07,  avg # of iterations =  7.1

     total cpu time spent up to now is       21.1 secs

     total energy              =    -157.99910264 Ry
     Harris-Foulkes estimate   =    -157.99911731 Ry
     estimated scf accuracy    <       0.00002262 Ry

     iteration #  5     ecut=    35.00 Ry     beta=0.30
     Davidson diagonalization with overlap
     ethr =  1.88E-07,  avg # of iterations =  1.4

     total cpu time spent up to now is       22.4 secs

     total energy              =    -157.99908615 Ry
     Harris-Foulkes estimate   =    -157.99910310 Ry
     estimated scf accuracy    <       0.00001091 Ry

     iteration #  6     ecut=    35.00 Ry     beta=0.30
     Davidson diagonalization with overlap
     ethr =  9.09E-08,  avg # of iterations =  2.1

     total cpu time spent up to now is       24.0 secs

     End of self-consistent calculation

          k = 0.1000 0.1000 0.1000 (  1542 PWs)   bands (ev):

    -2.9547   4.0196   4.0606   4.0997   7.7200   7.7661   7.8102  10.7394
    10.7877  10.8403

          k = 0.1000 0.1000 0.3000 (  1532 PWs)   bands (ev):

    -2.2317   1.3297   4.7137   4.7713   8.0002   8.1028   8.5583   8.5691
    11.3798  11.8079

          k = 0.1000 0.1000-0.5000 (  1556 PWs)   bands (ev):

    -0.8538  -0.7359   5.9549   5.9827   6.2360   6.2640   9.5253   9.5333
    10.2073  10.2154

          k = 0.1000 0.3000 0.3000 (  1565 PWs)   bands (ev):

    -1.5119   2.0047   2.0567   5.3258   5.5970   8.7830   8.8551   9.1749
    12.1403  12.1820

          k = 0.1000 0.3000-0.5000 (  1560 PWs)   bands (ev):

    -0.1413  -0.0233   3.3632   3.4831   6.7365   6.8646  10.0998  10.2339
    10.4609  10.5714

          k = 0.1000-0.5000-0.5000 (  1548 PWs)   bands (ev):

     1.2623   1.2772   1.3900   1.4003   8.0741   8.0933   8.2183   8.2317
    11.7945  11.8060

          k = 0.3000 0.3000 0.3000 (  1556 PWs)   bands (ev):

    -0.7957   2.6854   2.7292   2.7708   6.1422   6.1876   6.2342   9.5751
    13.0527  13.1011

          k = 0.3000 0.3000-0.5000 (  1546 PWs)   bands (ev):

     0.5679   0.6861   3.9674   3.9937   4.2553   4.2812   7.4886   7.6147
    14.1777  14.1966

          k = 0.3000-0.5000-0.5000 (  1564 PWs)   bands (ev):

     1.9643   1.9792   2.0921   2.1023   5.4366   5.4522   5.5687   5.5794
    15.5836  15.5996

          k =-0.5000-0.5000-0.5000 (  1568 PWs)   bands (ev):

     3.2871   3.2987   3.3143   3.3218   3.5514   3.5591   3.5719   3.5857
    19.2386  19.2694

          k =-0.1000-0.1000 0.1000 (  1542 PWs)   bands (ev):

    -2.9547   4.0278   4.0606   4.0912   7.7296   7.7664   7.8010  10.7499
    10.7874  10.8297

          k =-0.1000 0.1000-0.1000 (  1542 PWs)   bands (ev):

    -2.9547   4.0360   4.0604   4.0829   7.7392   7.7662   7.7919  10.7593
    10.7891  10.8183

          k = 0.1000-0.1000-0.1000 (  1542 PWs)   bands (ev):

    -2.9547   4.0320   4.0598   4.0877   7.7339   7.7659   7.7966  10.7545
    10.7881  10.8246

          k =-0.1000-0.1000 0.3000 (  1532 PWs)   bands (ev):

    -2.2317   1.3298   4.7135   4.7711   8.0018   8.1045   8.5569   8.5679
    11.3792  11.8214

          k =-0.1000 0.1000-0.3000 (  1532 PWs)   bands (ev):

    -2.2317   1.3298   4.7289   4.7553   8.0292   8.0763   8.5602   8.5652
    11.3794  11.8171

          k = 0.1000-0.1000-0.3000 (  1532 PWs)   bands (ev):

    -2.2317   1.3297   4.7291   4.7555   8.0264   8.0732   8.5631   8.5680
    11.3787  11.8121

          k = 0.3000-0.1000 0.1000 (  1532 PWs)   bands (ev):

    -2.2313   1.3281   4.7300   4.7568   8.0275   8.0752   8.5609   8.5660
    11.3825  11.8066

          k =-0.3000-0.1000-0.1000 (  1532 PWs)   bands (ev):

    -2.2313   1.3280   4.7192   4.7682   8.0077   8.0951   8.5583   8.5676
    11.3792  11.7882

          k = 0.3000 0.1000-0.1000 (  1532 PWs)   bands (ev):

    -2.2313   1.3280   4.7301   4.7569   8.0273   8.0750   8.5607   8.5658
    11.3832  11.8110

          k =-0.3000 0.1000 0.1000 (  1532 PWs)   bands (ev):

    -2.2313   1.3281   4.7190   4.7680   8.0078   8.0951   8.5584   8.5678
    11.3775  11.8174

          k =-0.1000 0.3000 0.1000 (  1532 PWs)   bands (ev):

    -2.2313   1.3280   4.7397   4.7474   8.0445   8.0578   8.5618   8.5643
    11.3806  11.7805

          k =-0.1000-0.3000-0.1000 (  1532 PWs)   bands (ev):

    -2.2313   1.3279   4.7294   4.7580   8.0257   8.0769   8.5599   8.5652
    11.3832  11.7730

          k = 0.1000 0.3000-0.1000 (  1532 PWs)   bands (ev):

    -2.2313   1.3279   4.7398   4.7473   8.0451   8.0584   8.5621   8.5636
    11.3816  11.7553

          k = 0.1000-0.3000 0.1000 (  1532 PWs)   bands (ev):

    -2.2313   1.3280   4.7291   4.7577   8.0268   8.0780   8.5598   8.5652
    11.3819  11.7627

          k =-0.1000 0.1000 0.5000 (  1556 PWs)   bands (ev):

    -0.8539  -0.7359   5.9638   5.9769   6.2416   6.2545   9.5286   9.5325
    10.2084  10.2122

          k =-0.5000-0.1000 0.1000 (  1556 PWs)   bands (ev):

    -0.8023  -0.7888   5.9843   5.9859   6.2321   6.2348   9.5336   9.5341
    10.2052  10.2072

          k = 0.5000-0.1000-0.1000 (  1556 PWs)   bands (ev):

    -0.8023  -0.7888   5.9825   5.9855   6.2330   6.2364   9.5333   9.5339
    10.2049  10.2057

          k =-0.1000-0.5000 0.1000 (  1556 PWs)   bands (ev):

    -0.7980  -0.7932   5.9850   5.9880   6.2306   6.2336   9.5317   9.5356
    10.2046  10.2074

          k =-0.1000 0.5000-0.1000 (  1556 PWs)   bands (ev):

    -0.7980  -0.7932   5.9840   5.9873   6.2316   6.2344   9.5312   9.5351
    10.2055  10.2080

          k =-0.1000-0.3000 0.3000 (  1565 PWs)   bands (ev):

    -1.5120   2.0163   2.0448   5.3262   5.5970   8.7983   8.8376   9.1767
    12.1631  12.1869

          k =-0.1000 0.3000-0.3000 (  1565 PWs)   bands (ev):

    -1.5120   2.0164   2.0448   5.3259   5.5972   8.7990   8.8384   9.1751
    12.1664  12.1848

          k = 0.1000-0.3000-0.3000 (  1565 PWs)   bands (ev):

    -1.5119   2.0047   2.0567   5.3256   5.5971   8.7818   8.8538   9.1774
    12.1452  12.1754

          k = 0.3000 0.1000-0.3000 (  1565 PWs)   bands (ev):

    -1.5119   2.0265   2.0347   5.3257   5.5972   8.8107   8.8231   9.1794
    12.1551  12.2088

          k =-0.3000-0.1000-0.3000 (  1565 PWs)   bands (ev):

    -1.5119   2.0153   2.0458   5.3264   5.5969   8.7933   8.8358   9.1841
    12.1545  12.1859

          k = 0.3000-0.1000 0.3000 (  1565 PWs)   bands (ev):

    -1.5119   2.0154   2.0458   5.3255   5.5974   8.7953   8.8377   9.1803
    12.1593  12.1854

          k =-0.3000 0.1000 0.3000 (  1565 PWs)   bands (ev):

    -1.5119   2.0265   2.0347   5.3260   5.5970   8.8073   8.8210   9.1849
    12.1547  12.2079

          k = 0.3000-0.3000 0.1000 (  1565 PWs)   bands (ev):

    -1.5116   2.0160   2.0440   5.3260   5.5970   8.8003   8.8390   9.1761
    12.1600  12.1863

          k =-0.3000-0.3000-0.1000 (  1565 PWs)   bands (ev):

    -1.5115   1.9995   2.0606   5.3265   5.5967   8.7772   8.8619   9.1755
    12.1436  12.1740

          k = 0.3000 0.3000-0.1000 (  1565 PWs)   bands (ev):

    -1.5115   1.9995   2.0606   5.3260   5.5970   8.7774   8.8620   9.1760
    12.1459  12.1702

          k =-0.3000 0.3000 0.1000 (  1565 PWs)   bands (ev):

    -1.5116   2.0160   2.0440   5.3267   5.5966   8.8000   8.8387   9.1751
    12.1594  12.1912

          k =-0.1000 0.3000 0.5000 (  1560 PWs)   bands (ev):

    -0.1413  -0.0233   3.3633   3.4832   6.7363   6.8643  10.0993  10.2331
    10.4621  10.5722

          k = 0.3000 0.1000 0.5000 (  1560 PWs)   bands (ev):

    -0.1413  -0.0232   3.3630   3.4830   6.7367   6.8647  10.0973  10.2318
    10.4629  10.5739

          k = 0.3000-0.1000-0.5000 (  1560 PWs)   bands (ev):

    -0.1413  -0.0233   3.3631   3.4831   6.7364   6.8644  10.0969  10.2312
    10.4638  10.5748

          k =-0.5000-0.3000 0.1000 (  1560 PWs)   bands (ev):

    -0.0898  -0.0762   3.4157   3.4295   6.7935   6.8083  10.1612  10.1769
    10.5089  10.5216

          k = 0.5000-0.3000-0.1000 (  1560 PWs)   bands (ev):

    -0.0897  -0.0762   3.4157   3.4295   6.7938   6.8086  10.1553  10.1711
    10.5136  10.5278

          k =-0.1000-0.5000 0.3000 (  1560 PWs)   bands (ev):

    -0.0858  -0.0809   3.4221   3.4266   6.7962   6.8019  10.1643  10.1699
    10.5142  10.5184

          k =-0.1000 0.5000-0.3000 (  1560 PWs)   bands (ev):

    -0.0858  -0.0809   3.4220   3.4266   6.7962   6.8019  10.1663  10.1713
    10.5120  10.5174

          k = 0.3000-0.5000 0.1000 (  1560 PWs)   bands (ev):

    -0.0854  -0.0806   3.4201   3.4252   6.7985   6.8035  10.1632  10.1713
    10.5143  10.5194

          k = 0.3000 0.5000-0.1000 (  1560 PWs)   bands (ev):

    -0.0854  -0.0806   3.4202   3.4252   6.7985   6.8034  10.1603  10.1702
    10.5151  10.5227

          k =-0.5000 0.1000 0.3000 (  1560 PWs)   bands (ev):

    -0.0901  -0.0765   3.4172   3.4311   6.7920   6.8068  10.1542  10.1699
    10.5143  10.5275

          k = 0.5000-0.1000 0.3000 (  1560 PWs)   bands (ev):

    -0.0901  -0.0765   3.4172   3.4311   6.7917   6.8064  10.1591  10.1751
    10.5103  10.5230

          k =-0.5000 0.1000 0.5000 (  1548 PWs)   bands (ev):

     1.2639   1.2808   1.3832   1.4018   8.0774   8.0978   8.2097   8.2319
    11.7948  11.8089

          k =-0.5000 0.5000 0.1000 (  1548 PWs)   bands (ev):

     1.3000   1.3163   1.3463   1.3646   8.1136   8.1351   8.1739   8.1974
    11.8442  11.8487

          k =-0.3000-0.3000 0.3000 (  1556 PWs)   bands (ev):

    -0.7957   2.6940   2.7295   2.7616   6.1524   6.1867   6.2251   9.5756
    13.0634  13.1014

          k =-0.3000 0.3000-0.3000 (  1556 PWs)   bands (ev):

    -0.7958   2.7031   2.7288   2.7530   6.1610   6.1885   6.2148   9.5758
    13.0735  13.1032

          k = 0.3000-0.3000-0.3000 (  1556 PWs)   bands (ev):

    -0.7958   2.6988   2.7284   2.7581   6.1560   6.1880   6.2199   9.5749
    13.0679  13.1009

          k =-0.3000 0.3000 0.5000 (  1546 PWs)   bands (ev):

     0.5678   0.6860   3.9764   3.9887   4.2601   4.2721   7.4887   7.6148
    14.1849  14.1944

          k =-0.5000-0.3000 0.3000 (  1546 PWs)   bands (ev):

     0.6191   0.6327   3.9949   3.9964   4.2517   4.2542   7.5458   7.5604
    14.1950  14.1963

          k = 0.5000-0.3000-0.3000 (  1546 PWs)   bands (ev):

     0.6191   0.6327   3.9928   3.9956   4.2530   4.2562   7.5453   7.5599
    14.1951  14.1959

          k =-0.3000-0.5000 0.3000 (  1546 PWs)   bands (ev):

     0.6234   0.6283   3.9954   3.9982   4.2506   4.2532   7.5504   7.5554
    14.6031  14.6069

          k =-0.3000 0.5000-0.3000 (  1546 PWs)   bands (ev):

     0.6234   0.6283   3.9944   3.9974   4.2515   4.2540   7.5505   7.5555
    14.1925  14.1978

          k =-0.5000 0.3000 0.5000 (  1564 PWs)   bands (ev):

     1.9658   1.9827   2.0853   2.1038   5.4384   5.4560   5.5617   5.5810
    15.5879  15.6061

          k =-0.5000 0.5000 0.3000 (  1564 PWs)   bands (ev):

     2.0019   2.0180   2.0479   2.0660   5.4772   5.4942   5.5253   5.5443
    15.6271  15.6419

     the Fermi energy is     8.0715 ev

!    total energy              =    -157.99908868 Ry
     Harris-Foulkes estimate   =    -157.99908884 Ry
     estimated scf accuracy    <       0.00000018 Ry

     total all-electron energy =     -1942.570216 Ry

     The total energy is the sum of the following terms:

     one-electron contribution =      12.68481594 Ry
     hartree contribution      =       0.02516167 Ry
     xc contribution           =     -10.36834079 Ry
     ewald contribution        =     -21.62987816 Ry
     one-center paw contrib.   =    -138.70915018 Ry
     smearing contrib. (-TS)   =      -0.00169715 Ry

     convergence has been achieved in   6 iterations

     Forces acting on atoms (Ry/au):

     atom    1 type  1   force =     0.00054822    0.00000512    0.00396708
     atom    2 type  2   force =    -0.00168521    0.00301668    0.00393761
     atom    3 type  3   force =     0.00074828   -0.00028169   -0.00475190
     atom    4 type  4   force =     0.00038871   -0.00274012   -0.00315279

     Total force =     0.009182     Total SCF correction =     0.000119


     entering subroutine stress ...

          total   stress  (Ry/bohr**3)                   (kbar)     P=    1.40
   0.00000902  -0.00000100  -0.00000153          1.33     -0.15     -0.22
  -0.00000100   0.00001418   0.00000380         -0.15      2.09      0.56
  -0.00000153   0.00000380   0.00000526         -0.22      0.56      0.77


     Writing output data file template.save

     init_run     :      1.26s CPU      1.28s WALL (       1 calls)
     electrons    :     21.49s CPU     21.71s WALL (       1 calls)
     forces       :      0.16s CPU      0.17s WALL (       1 calls)
     stress       :      0.49s CPU      0.49s WALL (       1 calls)

     Called by init_run:
     wfcinit      :      0.77s CPU      0.78s WALL (       1 calls)
     potinit      :      0.10s CPU      0.11s WALL (       1 calls)

     Called by electrons:
     c_bands      :     17.07s CPU     17.27s WALL (       7 calls)
     sum_band     :      3.15s CPU      3.19s WALL (       7 calls)
     v_of_rho     :      0.15s CPU      0.16s WALL (       7 calls)
     newd         :      0.16s CPU      0.17s WALL (       7 calls)
     PAW_pot      :      0.90s CPU      0.90s WALL (       7 calls)
     mix_rho      :      0.11s CPU      0.10s WALL (       7 calls)

     Called by c_bands:
     init_us_2    :      0.40s CPU      0.37s WALL (    1071 calls)
     cegterg      :     16.60s CPU     16.81s WALL (     441 calls)

     Called by sum_band:
     sum_band:bec :      0.00s CPU      0.01s WALL (     441 calls)
     addusdens    :      0.22s CPU      0.21s WALL (       7 calls)

     Called by *egterg:
     h_psi        :     15.14s CPU     15.32s WALL (    1771 calls)
     s_psi        :      0.28s CPU      0.28s WALL (    1771 calls)
     g_psi        :      0.04s CPU      0.04s WALL (    1267 calls)
     cdiaghg      :      0.62s CPU      0.63s WALL (    1645 calls)

     Called by h_psi:
     h_psi:pot    :     15.11s CPU     15.28s WALL (    1771 calls)
     h_psi:calbec :      0.42s CPU      0.42s WALL (    1771 calls)
     vloc_psi     :     14.36s CPU     14.55s WALL (    1771 calls)
     add_vuspsi   :      0.32s CPU      0.31s WALL (    1771 calls)

     General routines
     calbec       :      0.62s CPU      0.61s WALL (    2527 calls)
     fft          :      0.16s CPU      0.16s WALL (     137 calls)
     ffts         :      0.05s CPU      0.07s WALL (      79 calls)
     fftw         :     16.14s CPU     16.38s WALL (   30396 calls)
     interpolate  :      0.01s CPU      0.03s WALL (      14 calls)
     davcio       :      0.00s CPU      0.00s WALL (      63 calls)

     Parallel routines
     fft_scatter  :      3.36s CPU      3.42s WALL (   30612 calls)

     PWSCF        :    24.50s CPU        24.89s WALL


   This run was terminated on:  15:56:48   9Jun2017            

=------------------------------------------------------------------------------=
   JOB DONE.
=------------------------------------------------------------------------------=
