
     Program PWSCF v.6.0 (svn rev. 13079) starts on  9Jun2017 at 15:51:16 

     This program is part of the open-source Quantum ESPRESSO suite
     for quantum simulation of materials; please cite
         "P. Giannozzi et al., J. Phys.:Condens. Matter 21 395502 (2009);
          URL http://www.quantum-espresso.org", 
     in publications or presentations arising from this work. More details at
     http://www.quantum-espresso.org/quote

     Parallel version (MPI), running on     4 processors
     R & G space division:  proc/nbgrp/npool/nimage =       4
     Waiting for input...
     Reading input from standard input
Warning: card &IONS ignored
Warning: card ION_DYNAMICS='BFGS', ignored
Warning: card / ignored
Warning: card &CELL ignored
Warning: card CELL_DYNAMICS='BFGS', ignored
Warning: card PRESS = 0.0, ignored
Warning: card CELL_FACTOR = 2.0, ignored
Warning: card / ignored

     Current dimensions of program PWSCF are:
     Max number of different atomic species (ntypx) = 10
     Max number of k-points (npk) =  40000
     Max angular momentum in pseudopotentials (lmaxx) =  3
               file Al.pbe-nl-kjpaw_psl.1.0.0.UPF: wavefunction(s)  3S 3P renormalized
               file Al.pbe-nl-kjpaw_psl.1.0.0.UPF: wavefunction(s)  3S 3P renormalized
               file Al.pbe-nl-kjpaw_psl.1.0.0.UPF: wavefunction(s)  3S 3P renormalized
               file Al.pbe-nl-kjpaw_psl.1.0.0.UPF: wavefunction(s)  3S 3P renormalized

     Subspace diagonalization in iterative solution of the eigenvalue problem:
     a serial algorithm will be used


     Parallelization info
     --------------------
     sticks:   dense  smooth     PW     G-vecs:    dense   smooth      PW
     Min         232     164     49                 5310     3132     527
     Max         234     165     50                 5313     3135     528
     Sum         933     657    197                21247    12533    2109



     bravais-lattice index     =            0
     lattice parameter (alat)  =       7.6300  a.u.
     unit-cell volume          =     444.1949 (a.u.)^3
     number of atoms/cell      =            4
     number of atomic types    =            4
     number of electrons       =        12.00
     number of Kohn-Sham states=           10
     kinetic-energy cutoff     =      35.0000  Ry
     charge density cutoff     =     200.0000  Ry
     convergence threshold     =      1.0E-06
     mixing beta               =       0.3000
     number of iterations used =           10  local-TF  mixing
     Exchange-correlation      =  SLA  PW   PBX  PBC ( 1  4  3  4 0 0)

     celldm(1)=   7.630000  celldm(2)=   0.000000  celldm(3)=   0.000000
     celldm(4)=   0.000000  celldm(5)=   0.000000  celldm(6)=   0.000000

     crystal axes: (cart. coord. in units of alat)
               a(1) = (   1.000000   0.000000   0.000000 )  
               a(2) = (   0.000000   1.000000   0.000000 )  
               a(3) = (   0.000000   0.000000   1.000000 )  

     reciprocal axes: (cart. coord. in units 2 pi/alat)
               b(1) = (  1.000000  0.000000  0.000000 )  
               b(2) = (  0.000000  1.000000  0.000000 )  
               b(3) = (  0.000000  0.000000  1.000000 )  


     PseudoPot. # 1 for Al read from file:
     /home/ben/espresso/pp/Al.pbe-nl-kjpaw_psl.1.0.0.UPF
     MD5 check sum: 339dbea23cf3ab9a065ad45c0f9085d7
     Pseudo is Projector augmented-wave + core cor, Zval =  3.0
     Generated using "atomic" code by A. Dal Corso  v.5.1
     Shape of augmentation charge: PSQ
     Using radial grid of 1135 points,  4 beta functions with: 
                l(1) =   0
                l(2) =   0
                l(3) =   1
                l(4) =   1
     Q(r) pseudized with 0 coefficients 


     PseudoPot. # 2 for Al read from file:
     /home/ben/espresso/pp/Al.pbe-nl-kjpaw_psl.1.0.0.UPF
     MD5 check sum: 339dbea23cf3ab9a065ad45c0f9085d7
     Pseudo is Projector augmented-wave + core cor, Zval =  3.0
     Generated using "atomic" code by A. Dal Corso  v.5.1
     Shape of augmentation charge: PSQ
     Using radial grid of 1135 points,  4 beta functions with: 
                l(1) =   0
                l(2) =   0
                l(3) =   1
                l(4) =   1
     Q(r) pseudized with 0 coefficients 


     PseudoPot. # 3 for Al read from file:
     /home/ben/espresso/pp/Al.pbe-nl-kjpaw_psl.1.0.0.UPF
     MD5 check sum: 339dbea23cf3ab9a065ad45c0f9085d7
     Pseudo is Projector augmented-wave + core cor, Zval =  3.0
     Generated using "atomic" code by A. Dal Corso  v.5.1
     Shape of augmentation charge: PSQ
     Using radial grid of 1135 points,  4 beta functions with: 
                l(1) =   0
                l(2) =   0
                l(3) =   1
                l(4) =   1
     Q(r) pseudized with 0 coefficients 


     PseudoPot. # 4 for Al read from file:
     /home/ben/espresso/pp/Al.pbe-nl-kjpaw_psl.1.0.0.UPF
     MD5 check sum: 339dbea23cf3ab9a065ad45c0f9085d7
     Pseudo is Projector augmented-wave + core cor, Zval =  3.0
     Generated using "atomic" code by A. Dal Corso  v.5.1
     Shape of augmentation charge: PSQ
     Using radial grid of 1135 points,  4 beta functions with: 
                l(1) =   0
                l(2) =   0
                l(3) =   1
                l(4) =   1
     Q(r) pseudized with 0 coefficients 


     atomic species   valence    mass     pseudopotential
        Al1            3.00    26.98200     Al( 1.00)
        Al2            3.00    26.98200     Al( 1.00)
        Al3            3.00    26.98200     Al( 1.00)
        Al4            3.00    26.98200     Al( 1.00)

     No symmetry found



   Cartesian axes

     site n.     atom                  positions (alat units)
         1           Al1 tau(   1) = (   0.9997219   0.0000809   0.0005791  )
         2           Al2 tau(   2) = (   0.5006775   0.4983830   0.0005985  )
         3           Al3 tau(   3) = (   0.4992096   0.0002595   0.5025150  )
         4           Al4 tau(   4) = (   0.9998297   0.5018615   0.5015634  )

     number of k points=    63  Marzari-Vanderbilt smearing, width (Ry)=  0.0200
                       cart. coord. in units 2pi/alat
        k(    1) = (   0.1000000   0.1000000   0.1000000), wk =   0.0320000
        k(    2) = (   0.1000000   0.1000000   0.3000000), wk =   0.0320000
        k(    3) = (   0.1000000   0.1000000  -0.5000000), wk =   0.0320000
        k(    4) = (   0.1000000   0.3000000   0.3000000), wk =   0.0320000
        k(    5) = (   0.1000000   0.3000000  -0.5000000), wk =   0.0320000
        k(    6) = (   0.1000000  -0.5000000  -0.5000000), wk =   0.0320000
        k(    7) = (   0.3000000   0.3000000   0.3000000), wk =   0.0320000
        k(    8) = (   0.3000000   0.3000000  -0.5000000), wk =   0.0320000
        k(    9) = (   0.3000000  -0.5000000  -0.5000000), wk =   0.0320000
        k(   10) = (  -0.5000000  -0.5000000  -0.5000000), wk =   0.0160000
        k(   11) = (  -0.1000000  -0.1000000   0.1000000), wk =   0.0320000
        k(   12) = (  -0.1000000   0.1000000  -0.1000000), wk =   0.0320000
        k(   13) = (   0.1000000  -0.1000000  -0.1000000), wk =   0.0320000
        k(   14) = (  -0.1000000  -0.1000000   0.3000000), wk =   0.0320000
        k(   15) = (  -0.1000000   0.1000000  -0.3000000), wk =   0.0320000
        k(   16) = (   0.1000000  -0.1000000  -0.3000000), wk =   0.0320000
        k(   17) = (   0.3000000  -0.1000000   0.1000000), wk =   0.0320000
        k(   18) = (  -0.3000000  -0.1000000  -0.1000000), wk =   0.0320000
        k(   19) = (   0.3000000   0.1000000  -0.1000000), wk =   0.0320000
        k(   20) = (  -0.3000000   0.1000000   0.1000000), wk =   0.0320000
        k(   21) = (  -0.1000000   0.3000000   0.1000000), wk =   0.0320000
        k(   22) = (  -0.1000000  -0.3000000  -0.1000000), wk =   0.0320000
        k(   23) = (   0.1000000   0.3000000  -0.1000000), wk =   0.0320000
        k(   24) = (   0.1000000  -0.3000000   0.1000000), wk =   0.0320000
        k(   25) = (  -0.1000000   0.1000000   0.5000000), wk =   0.0320000
        k(   26) = (  -0.5000000  -0.1000000   0.1000000), wk =   0.0320000
        k(   27) = (   0.5000000  -0.1000000  -0.1000000), wk =   0.0320000
        k(   28) = (  -0.1000000  -0.5000000   0.1000000), wk =   0.0320000
        k(   29) = (  -0.1000000   0.5000000  -0.1000000), wk =   0.0320000
        k(   30) = (  -0.1000000  -0.3000000   0.3000000), wk =   0.0320000
        k(   31) = (  -0.1000000   0.3000000  -0.3000000), wk =   0.0320000
        k(   32) = (   0.1000000  -0.3000000  -0.3000000), wk =   0.0320000
        k(   33) = (   0.3000000   0.1000000  -0.3000000), wk =   0.0320000
        k(   34) = (  -0.3000000  -0.1000000  -0.3000000), wk =   0.0320000
        k(   35) = (   0.3000000  -0.1000000   0.3000000), wk =   0.0320000
        k(   36) = (  -0.3000000   0.1000000   0.3000000), wk =   0.0320000
        k(   37) = (   0.3000000  -0.3000000   0.1000000), wk =   0.0320000
        k(   38) = (  -0.3000000  -0.3000000  -0.1000000), wk =   0.0320000
        k(   39) = (   0.3000000   0.3000000  -0.1000000), wk =   0.0320000
        k(   40) = (  -0.3000000   0.3000000   0.1000000), wk =   0.0320000
        k(   41) = (  -0.1000000   0.3000000   0.5000000), wk =   0.0320000
        k(   42) = (   0.3000000   0.1000000   0.5000000), wk =   0.0320000
        k(   43) = (   0.3000000  -0.1000000  -0.5000000), wk =   0.0320000
        k(   44) = (  -0.5000000  -0.3000000   0.1000000), wk =   0.0320000
        k(   45) = (   0.5000000  -0.3000000  -0.1000000), wk =   0.0320000
        k(   46) = (  -0.1000000  -0.5000000   0.3000000), wk =   0.0320000
        k(   47) = (  -0.1000000   0.5000000  -0.3000000), wk =   0.0320000
        k(   48) = (   0.3000000  -0.5000000   0.1000000), wk =   0.0320000
        k(   49) = (   0.3000000   0.5000000  -0.1000000), wk =   0.0320000
        k(   50) = (  -0.5000000   0.1000000   0.3000000), wk =   0.0320000
        k(   51) = (   0.5000000  -0.1000000   0.3000000), wk =   0.0320000
        k(   52) = (  -0.5000000   0.1000000   0.5000000), wk =   0.0320000
        k(   53) = (  -0.5000000   0.5000000   0.1000000), wk =   0.0320000
        k(   54) = (  -0.3000000  -0.3000000   0.3000000), wk =   0.0320000
        k(   55) = (  -0.3000000   0.3000000  -0.3000000), wk =   0.0320000
        k(   56) = (   0.3000000  -0.3000000  -0.3000000), wk =   0.0320000
        k(   57) = (  -0.3000000   0.3000000   0.5000000), wk =   0.0320000
        k(   58) = (  -0.5000000  -0.3000000   0.3000000), wk =   0.0320000
        k(   59) = (   0.5000000  -0.3000000  -0.3000000), wk =   0.0320000
        k(   60) = (  -0.3000000  -0.5000000   0.3000000), wk =   0.0320000
        k(   61) = (  -0.3000000   0.5000000  -0.3000000), wk =   0.0320000
        k(   62) = (  -0.5000000   0.3000000   0.5000000), wk =   0.0320000
        k(   63) = (  -0.5000000   0.5000000   0.3000000), wk =   0.0320000

     Dense  grid:    21247 G-vectors     FFT dimensions: (  36,  36,  36)

     Smooth grid:    12533 G-vectors     FFT dimensions: (  30,  30,  30)

     Estimated max dynamical RAM per process >       9.70Mb

     Estimated total allocated dynamical RAM >      38.81Mb

     Initial potential from superposition of free atoms

     starting charge   11.99084, renormalised to   12.00000
     Starting wfc are   16 randomized atomic wfcs
     Checking if some PAW data can be deallocated... 

     total cpu time spent up to now is        2.3 secs

     per-process dynamical memory:    16.8 Mb

     Self-consistent Calculation

     iteration #  1     ecut=    35.00 Ry     beta=0.30
     Davidson diagonalization with overlap
     ethr =  1.00E-02,  avg # of iterations =  3.1

     Threshold (ethr) on eigenvalues was too large:
     Diagonalizing with lowered threshold

     Davidson diagonalization with overlap
     ethr =  1.95E-04,  avg # of iterations =  3.5

     total cpu time spent up to now is        5.9 secs

     total energy              =    -158.00346891 Ry
     Harris-Foulkes estimate   =    -158.00587082 Ry
     estimated scf accuracy    <       0.02273618 Ry

     iteration #  2     ecut=    35.00 Ry     beta=0.30
     Davidson diagonalization with overlap
     ethr =  1.89E-04,  avg # of iterations =  1.0

     total cpu time spent up to now is        7.3 secs

     total energy              =    -157.99910522 Ry
     Harris-Foulkes estimate   =    -158.00360942 Ry
     estimated scf accuracy    <       0.01413158 Ry

     iteration #  3     ecut=    35.00 Ry     beta=0.30
     Davidson diagonalization with overlap
     ethr =  1.18E-04,  avg # of iterations =  1.7

     total cpu time spent up to now is        8.7 secs

     total energy              =    -157.99938026 Ry
     Harris-Foulkes estimate   =    -157.99943818 Ry
     estimated scf accuracy    <       0.00002812 Ry

     iteration #  4     ecut=    35.00 Ry     beta=0.30
     Davidson diagonalization with overlap
     ethr =  2.34E-07,  avg # of iterations =  6.1

     total cpu time spent up to now is       12.6 secs

     total energy              =    -157.99943487 Ry
     Harris-Foulkes estimate   =    -157.99945433 Ry
     estimated scf accuracy    <       0.00001409 Ry

     iteration #  5     ecut=    35.00 Ry     beta=0.30
     Davidson diagonalization with overlap
     ethr =  1.17E-07,  avg # of iterations =  1.3

     total cpu time spent up to now is       17.2 secs

     total energy              =    -157.99943000 Ry
     Harris-Foulkes estimate   =    -157.99943580 Ry
     estimated scf accuracy    <       0.00000437 Ry

     iteration #  6     ecut=    35.00 Ry     beta=0.30
     Davidson diagonalization with overlap
     ethr =  3.64E-08,  avg # of iterations =  2.0

     total cpu time spent up to now is       22.5 secs

     End of self-consistent calculation

          k = 0.1000 0.1000 0.1000 (  1542 PWs)   bands (ev):

    -2.9538   4.0506   4.0607   4.0706   7.7555   7.7669   7.7781  10.7768
    10.7893  10.8021

          k = 0.1000 0.1000 0.3000 (  1532 PWs)   bands (ev):

    -2.2304   1.3293   4.7367   4.7511   8.0403   8.0661   8.5621   8.5647
    11.3817  11.8246

          k = 0.1000 0.1000-0.5000 (  1556 PWs)   bands (ev):

    -0.8092  -0.7798   5.9851   5.9871   6.2328   6.2348   9.5344   9.5350
    10.2074  10.2081

          k = 0.1000 0.3000 0.3000 (  1565 PWs)   bands (ev):

    -1.5106   2.0246   2.0377   5.3268   5.5974   8.8108   8.8289   9.1760
    12.1998  12.2282

          k = 0.1000 0.3000-0.5000 (  1560 PWs)   bands (ev):

    -0.0966  -0.0671   3.4087   3.4386   6.7850   6.8170  10.1520  10.1857
    10.5017  10.5294

          k = 0.1000-0.5000-0.5000 (  1548 PWs)   bands (ev):

     1.3156   1.3188   1.3469   1.3501   8.1351   8.1393   8.1705   8.1746
    11.8455  11.8464

          k = 0.3000 0.3000 0.3000 (  1556 PWs)   bands (ev):

    -0.7944   2.7185   2.7292   2.7399   6.1767   6.1882   6.1997   9.5750
    13.0926  13.1032

          k = 0.3000 0.3000-0.5000 (  1546 PWs)   bands (ev):

     0.6127   0.6422   3.9954   3.9972   4.2523   4.2542   7.5363   7.5678
    14.1978  14.6062

          k = 0.3000-0.5000-0.5000 (  1564 PWs)   bands (ev):

     2.0177   2.0209   2.0491   2.0522   5.4916   5.4949   5.5240   5.5273
    15.6453  15.6676

          k =-0.5000-0.5000-0.5000 (  1568 PWs)   bands (ev):

     3.3225   3.3232   3.3245   3.3249   3.5482   3.5489   3.5496   3.5510
    19.3506  19.3571

          k =-0.1000-0.1000 0.1000 (  1542 PWs)   bands (ev):

    -2.9538   4.0527   4.0607   4.0685   7.7579   7.7669   7.7757  10.7794
    10.7893  10.7994

          k =-0.1000 0.1000-0.1000 (  1542 PWs)   bands (ev):

    -2.9538   4.0548   4.0607   4.0665   7.7602   7.7669   7.7734  10.7820
    10.7894  10.7968

          k = 0.1000-0.1000-0.1000 (  1542 PWs)   bands (ev):

    -2.9538   4.0536   4.0606   4.0676   7.7589   7.7669   7.7747  10.7806
    10.7893  10.7982

          k =-0.1000-0.1000 0.3000 (  1532 PWs)   bands (ev):

    -2.2304   1.3293   4.7367   4.7511   8.0404   8.0662   8.5620   8.5646
    11.3817  11.8257

          k =-0.1000 0.1000-0.3000 (  1532 PWs)   bands (ev):

    -2.2304   1.3293   4.7406   4.7472   8.0473   8.0591   8.5627   8.5639
    11.3817  11.8254

          k = 0.1000-0.1000-0.3000 (  1532 PWs)   bands (ev):

    -2.2304   1.3293   4.7406   4.7472   8.0471   8.0590   8.5629   8.5641
    11.3816  11.8249

          k = 0.3000-0.1000 0.1000 (  1532 PWs)   bands (ev):

    -2.2304   1.3292   4.7406   4.7473   8.0472   8.0591   8.5628   8.5640
    11.3819  11.8241

          k =-0.3000-0.1000-0.1000 (  1532 PWs)   bands (ev):

    -2.2304   1.3292   4.7379   4.7501   8.0422   8.0641   8.5622   8.5645
    11.3817  11.8222

          k = 0.3000 0.1000-0.1000 (  1532 PWs)   bands (ev):

    -2.2304   1.3292   4.7406   4.7473   8.0471   8.0591   8.5627   8.5640
    11.3819  11.8249

          k =-0.3000 0.1000 0.1000 (  1532 PWs)   bands (ev):

    -2.2304   1.3292   4.7378   4.7501   8.0422   8.0641   8.5622   8.5645
    11.3815  11.8253

          k =-0.1000 0.3000 0.1000 (  1532 PWs)   bands (ev):

    -2.2304   1.3292   4.7430   4.7449   8.0515   8.0548   8.5631   8.5636
    11.3817  11.8207

          k =-0.1000-0.3000-0.1000 (  1532 PWs)   bands (ev):

    -2.2304   1.3292   4.7404   4.7476   8.0467   8.0596   8.5627   8.5639
    11.3819  11.8194

          k = 0.1000 0.3000-0.1000 (  1532 PWs)   bands (ev):

    -2.2304   1.3292   4.7430   4.7449   8.0515   8.0549   8.5631   8.5635
    11.3818  11.8166

          k = 0.1000-0.3000 0.1000 (  1532 PWs)   bands (ev):

    -2.2304   1.3292   4.7404   4.7475   8.0468   8.0596   8.5627   8.5639
    11.3818  11.8182

          k =-0.1000 0.1000 0.5000 (  1556 PWs)   bands (ev):

    -0.8092  -0.7798   5.9858   5.9868   6.2331   6.2341   9.5346   9.5349
    10.2074  10.2079

          k =-0.5000-0.1000 0.1000 (  1556 PWs)   bands (ev):

    -0.7963  -0.7929   5.9872   5.9874   6.2324   6.2329   9.5349   9.5350
    10.2072  10.2077

          k = 0.5000-0.1000-0.1000 (  1556 PWs)   bands (ev):

    -0.7963  -0.7929   5.9870   5.9874   6.2325   6.2329   9.5349   9.5351
    10.2072  10.2075

          k =-0.1000-0.5000 0.1000 (  1556 PWs)   bands (ev):

    -0.7951  -0.7941   5.9873   5.9874   6.2325   6.2326   9.5349   9.5351
    10.2074  10.2074

          k =-0.1000 0.5000-0.1000 (  1556 PWs)   bands (ev):

    -0.7951  -0.7941   5.9873   5.9874   6.2326   6.2326   9.5348   9.5350
    10.2074  10.2075

          k =-0.1000-0.3000 0.3000 (  1565 PWs)   bands (ev):

    -1.5106   2.0276   2.0347   5.3269   5.5974   8.8148   8.8247   9.1761
    12.2061  12.2211

          k =-0.1000 0.3000-0.3000 (  1565 PWs)   bands (ev):

    -1.5106   2.0276   2.0347   5.3268   5.5974   8.8149   8.8248   9.1760
    12.2067  12.2221

          k = 0.1000-0.3000-0.3000 (  1565 PWs)   bands (ev):

    -1.5106   2.0246   2.0377   5.3268   5.5974   8.8107   8.8288   9.1761
    12.2014  12.2285

          k = 0.3000 0.1000-0.3000 (  1565 PWs)   bands (ev):

    -1.5106   2.0301   2.0321   5.3268   5.5974   8.8183   8.8211   9.1763
    12.2126  12.2157

          k =-0.3000-0.1000-0.3000 (  1565 PWs)   bands (ev):

    -1.5106   2.0274   2.0349   5.3269   5.5974   8.8143   8.8248   9.1766
    12.1723  12.2078

          k = 0.3000-0.1000 0.3000 (  1565 PWs)   bands (ev):

    -1.5106   2.0274   2.0349   5.3268   5.5974   8.8144   8.8249   9.1763
    12.2050  12.2192

          k =-0.3000 0.1000 0.3000 (  1565 PWs)   bands (ev):

    -1.5106   2.0301   2.0322   5.3268   5.5974   8.8181   8.8209   9.1766
    12.1676  12.2131

          k = 0.3000-0.3000 0.1000 (  1565 PWs)   bands (ev):

    -1.5106   2.0276   2.0346   5.3268   5.5974   8.8150   8.8247   9.1760
    12.2069  12.2217

          k =-0.3000-0.3000-0.1000 (  1565 PWs)   bands (ev):

    -1.5106   2.0235   2.0388   5.3269   5.5974   8.8092   8.8305   9.1760
    12.1983  12.2291

          k = 0.3000 0.3000-0.1000 (  1565 PWs)   bands (ev):

    -1.5106   2.0235   2.0388   5.3268   5.5974   8.8092   8.8305   9.1760
    12.1987  12.2303

          k =-0.3000 0.3000 0.1000 (  1565 PWs)   bands (ev):

    -1.5106   2.0276   2.0346   5.3269   5.5974   8.8150   8.8247   9.1760
    12.1756  12.2085

          k =-0.1000 0.3000 0.5000 (  1560 PWs)   bands (ev):

    -0.0966  -0.0671   3.4087   3.4386   6.7850   6.8170  10.1520  10.1857
    10.5017  10.5294

          k = 0.3000 0.1000 0.5000 (  1560 PWs)   bands (ev):

    -0.0966  -0.0671   3.4087   3.4386   6.7850   6.8170  10.1519  10.1856
    10.5018  10.5295

          k = 0.3000-0.1000-0.5000 (  1560 PWs)   bands (ev):

    -0.0966  -0.0671   3.4087   3.4386   6.7850   6.8170  10.1518  10.1855
    10.5019  10.5296

          k =-0.5000-0.3000 0.1000 (  1560 PWs)   bands (ev):

    -0.0836  -0.0802   3.4219   3.4253   6.7992   6.8028  10.1671  10.1709
    10.5139  10.5170

          k = 0.5000-0.3000-0.1000 (  1560 PWs)   bands (ev):

    -0.0836  -0.0802   3.4219   3.4253   6.7992   6.8029  10.1667  10.1705
    10.5142  10.5174

          k =-0.1000-0.5000 0.3000 (  1560 PWs)   bands (ev):

    -0.0824  -0.0814   3.4232   3.4243   6.8003   6.8015  10.1683  10.1695
    10.5150  10.5160

          k =-0.1000 0.5000-0.3000 (  1560 PWs)   bands (ev):

    -0.0824  -0.0814   3.4232   3.4243   6.8003   6.8015  10.1684  10.1696
    10.5149  10.5159

          k = 0.3000-0.5000 0.1000 (  1560 PWs)   bands (ev):

    -0.0824  -0.0814   3.4231   3.4242   6.8005   6.8016  10.1683  10.1695
    10.5151  10.5161

          k = 0.3000 0.5000-0.1000 (  1560 PWs)   bands (ev):

    -0.0824  -0.0814   3.4231   3.4242   6.8005   6.8016  10.1681  10.1694
    10.5152  10.5162

          k =-0.5000 0.1000 0.3000 (  1560 PWs)   bands (ev):

    -0.0836  -0.0802   3.4220   3.4254   6.7991   6.8028  10.1666  10.1705
    10.5143  10.5174

          k = 0.5000-0.1000 0.3000 (  1560 PWs)   bands (ev):

    -0.0836  -0.0802   3.4220   3.4254   6.7991   6.8027  10.1669  10.1708
    10.5140  10.5171

          k =-0.5000 0.1000 0.5000 (  1548 PWs)   bands (ev):

     1.3158   1.3199   1.3455   1.3502   8.1357   8.1407   8.1688   8.1743
    11.8440  11.8475

          k =-0.5000 0.5000 0.1000 (  1548 PWs)   bands (ev):

     1.3248   1.3290   1.3365   1.3409   8.1445   8.1501   8.1597   8.1655
    11.8579  11.8614

          k =-0.3000-0.3000 0.3000 (  1556 PWs)   bands (ev):

    -0.7944   2.7207   2.7292   2.7376   6.1791   6.1881   6.1973   9.5751
    13.0977  13.1093

          k =-0.3000 0.3000-0.3000 (  1556 PWs)   bands (ev):

    -0.7944   2.7229   2.7292   2.7354   6.1814   6.1882   6.1949   9.5751
    13.0994  13.1059

          k = 0.3000-0.3000-0.3000 (  1556 PWs)   bands (ev):

    -0.7944   2.7217   2.7292   2.7366   6.1802   6.1882   6.1962   9.5750
    13.0974  13.1022

          k =-0.3000 0.3000 0.5000 (  1546 PWs)   bands (ev):

     0.6127   0.6422   3.9960   3.9969   4.2526   4.2535   7.5363   7.5678
    14.1983  14.1989

          k =-0.5000-0.3000 0.3000 (  1546 PWs)   bands (ev):

     0.6257   0.6291   3.9972   3.9975   4.2520   4.2524   7.5504   7.5540
    14.1989  14.1990

          k = 0.5000-0.3000-0.3000 (  1546 PWs)   bands (ev):

     0.6257   0.6291   3.9971   3.9974   4.2521   4.2525   7.5503   7.5539
    14.1989  14.1991

          k =-0.3000-0.5000 0.3000 (  1546 PWs)   bands (ev):

     0.6269   0.6279   3.9974   3.9975   4.2521   4.2521   7.5516   7.5527
    14.6059  14.6062

          k =-0.3000 0.5000-0.3000 (  1546 PWs)   bands (ev):

     0.6269   0.6279   3.9973   3.9974   4.2522   4.2522   7.5516   7.5527
    14.1991  14.6062

          k =-0.5000 0.3000 0.5000 (  1564 PWs)   bands (ev):

     2.0179   2.0220   2.0477   2.0523   5.4918   5.4961   5.5225   5.5274
    15.6438  15.6488

          k =-0.5000 0.5000 0.3000 (  1564 PWs)   bands (ev):

     2.0270   2.0312   2.0386   2.0430   5.5011   5.5056   5.5133   5.5179
    15.6572  15.6644

     the Fermi energy is     8.0751 ev

!    total energy              =    -157.99943079 Ry
     Harris-Foulkes estimate   =    -157.99943083 Ry
     estimated scf accuracy    <       0.00000015 Ry

     total all-electron energy =     -1942.570559 Ry

     The total energy is the sum of the following terms:

     one-electron contribution =      12.68722467 Ry
     hartree contribution      =       0.02392158 Ry
     xc contribution           =     -10.36776843 Ry
     ewald contribution        =     -21.63221844 Ry
     one-center paw contrib.   =    -138.70878679 Ry
     smearing contrib. (-TS)   =      -0.00180338 Ry

     convergence has been achieved in   6 iterations

     Forces acting on atoms (Ry/au):

     atom    1 type  1   force =     0.00015077   -0.00001822    0.00098988
     atom    2 type  2   force =    -0.00044485    0.00074301    0.00098311
     atom    3 type  3   force =     0.00018330   -0.00003418   -0.00120582
     atom    4 type  4   force =     0.00011078   -0.00069061   -0.00076717

     Total force =     0.002299     Total SCF correction =     0.000100


     entering subroutine stress ...

          total   stress  (Ry/bohr**3)                   (kbar)     P=    0.84
   0.00000565  -0.00000006  -0.00000009          0.83     -0.01     -0.01
  -0.00000006   0.00000598   0.00000025         -0.01      0.88      0.04
  -0.00000009   0.00000025   0.00000541         -0.01      0.04      0.80


     Writing output data file template.save

     init_run     :      1.22s CPU      1.25s WALL (       1 calls)
     electrons    :     19.72s CPU     20.23s WALL (       1 calls)
     forces       :      0.19s CPU      0.20s WALL (       1 calls)
     stress       :      0.46s CPU      0.48s WALL (       1 calls)

     Called by init_run:
     wfcinit      :      0.73s CPU      0.74s WALL (       1 calls)
     potinit      :      0.10s CPU      0.11s WALL (       1 calls)

     Called by electrons:
     c_bands      :     15.15s CPU     15.58s WALL (       7 calls)
     sum_band     :      3.50s CPU      3.58s WALL (       7 calls)
     v_of_rho     :      0.13s CPU      0.13s WALL (       7 calls)
     newd         :      0.15s CPU      0.15s WALL (       7 calls)
     PAW_pot      :      0.76s CPU      0.77s WALL (       7 calls)
     mix_rho      :      0.08s CPU      0.09s WALL (       7 calls)

     Called by c_bands:
     init_us_2    :      0.46s CPU      0.40s WALL (    1071 calls)
     cegterg      :     14.63s CPU     15.11s WALL (     441 calls)

     Called by sum_band:
     sum_band:bec :      0.01s CPU      0.01s WALL (     441 calls)
     addusdens    :      0.18s CPU      0.20s WALL (       7 calls)

     Called by *egterg:
     h_psi        :     13.52s CPU     13.99s WALL (    1683 calls)
     s_psi        :      0.25s CPU      0.27s WALL (    1683 calls)
     g_psi        :      0.02s CPU      0.04s WALL (    1179 calls)
     cdiaghg      :      0.43s CPU      0.51s WALL (    1557 calls)

     Called by h_psi:
     h_psi:pot    :     13.50s CPU     13.96s WALL (    1683 calls)
     h_psi:calbec :      0.33s CPU      0.36s WALL (    1683 calls)
     vloc_psi     :     12.93s CPU     13.29s WALL (    1683 calls)
     add_vuspsi   :      0.24s CPU      0.30s WALL (    1683 calls)

     General routines
     calbec       :      0.61s CPU      0.57s WALL (    2439 calls)
     fft          :      0.13s CPU      0.13s WALL (     137 calls)
     ffts         :      0.07s CPU      0.06s WALL (      79 calls)
     fftw         :     15.04s CPU     15.49s WALL (   29874 calls)
     interpolate  :      0.02s CPU      0.03s WALL (      14 calls)
     davcio       :      0.00s CPU      0.00s WALL (      63 calls)

     Parallel routines
     fft_scatter  :      2.48s CPU      2.44s WALL (   30090 calls)

     PWSCF        :    22.71s CPU        23.40s WALL


   This run was terminated on:  15:51:40   9Jun2017            

=------------------------------------------------------------------------------=
   JOB DONE.
=------------------------------------------------------------------------------=
