
     Program PWSCF v.6.0 (svn rev. 13079) starts on  9Jun2017 at 15:49:49 

     This program is part of the open-source Quantum ESPRESSO suite
     for quantum simulation of materials; please cite
         "P. Giannozzi et al., J. Phys.:Condens. Matter 21 395502 (2009);
          URL http://www.quantum-espresso.org", 
     in publications or presentations arising from this work. More details at
     http://www.quantum-espresso.org/quote

     Parallel version (MPI), running on     4 processors
     R & G space division:  proc/nbgrp/npool/nimage =       4
     Waiting for input...
     Reading input from standard input
Warning: card &IONS ignored
Warning: card ION_DYNAMICS='BFGS', ignored
Warning: card / ignored
Warning: card &CELL ignored
Warning: card CELL_DYNAMICS='BFGS', ignored
Warning: card PRESS = 0.0, ignored
Warning: card CELL_FACTOR = 2.0, ignored
Warning: card / ignored

     Current dimensions of program PWSCF are:
     Max number of different atomic species (ntypx) = 10
     Max number of k-points (npk) =  40000
     Max angular momentum in pseudopotentials (lmaxx) =  3
               file Al.pbe-nl-kjpaw_psl.1.0.0.UPF: wavefunction(s)  3S 3P renormalized
               file Al.pbe-nl-kjpaw_psl.1.0.0.UPF: wavefunction(s)  3S 3P renormalized
               file Al.pbe-nl-kjpaw_psl.1.0.0.UPF: wavefunction(s)  3S 3P renormalized
               file Al.pbe-nl-kjpaw_psl.1.0.0.UPF: wavefunction(s)  3S 3P renormalized

     Subspace diagonalization in iterative solution of the eigenvalue problem:
     a serial algorithm will be used


     Parallelization info
     --------------------
     sticks:   dense  smooth     PW     G-vecs:    dense   smooth      PW
     Min         232     164     49                 5310     3132     527
     Max         234     165     50                 5313     3135     528
     Sum         933     657    197                21247    12533    2109



     bravais-lattice index     =            0
     lattice parameter (alat)  =       7.6300  a.u.
     unit-cell volume          =     444.1949 (a.u.)^3
     number of atoms/cell      =            4
     number of atomic types    =            4
     number of electrons       =        12.00
     number of Kohn-Sham states=           10
     kinetic-energy cutoff     =      35.0000  Ry
     charge density cutoff     =     200.0000  Ry
     convergence threshold     =      1.0E-06
     mixing beta               =       0.3000
     number of iterations used =           10  local-TF  mixing
     Exchange-correlation      =  SLA  PW   PBX  PBC ( 1  4  3  4 0 0)

     celldm(1)=   7.630000  celldm(2)=   0.000000  celldm(3)=   0.000000
     celldm(4)=   0.000000  celldm(5)=   0.000000  celldm(6)=   0.000000

     crystal axes: (cart. coord. in units of alat)
               a(1) = (   1.000000   0.000000   0.000000 )  
               a(2) = (   0.000000   1.000000   0.000000 )  
               a(3) = (   0.000000   0.000000   1.000000 )  

     reciprocal axes: (cart. coord. in units 2 pi/alat)
               b(1) = (  1.000000  0.000000  0.000000 )  
               b(2) = (  0.000000  1.000000  0.000000 )  
               b(3) = (  0.000000  0.000000  1.000000 )  


     PseudoPot. # 1 for Al read from file:
     /home/ben/espresso/pp/Al.pbe-nl-kjpaw_psl.1.0.0.UPF
     MD5 check sum: 339dbea23cf3ab9a065ad45c0f9085d7
     Pseudo is Projector augmented-wave + core cor, Zval =  3.0
     Generated using "atomic" code by A. Dal Corso  v.5.1
     Shape of augmentation charge: PSQ
     Using radial grid of 1135 points,  4 beta functions with: 
                l(1) =   0
                l(2) =   0
                l(3) =   1
                l(4) =   1
     Q(r) pseudized with 0 coefficients 


     PseudoPot. # 2 for Al read from file:
     /home/ben/espresso/pp/Al.pbe-nl-kjpaw_psl.1.0.0.UPF
     MD5 check sum: 339dbea23cf3ab9a065ad45c0f9085d7
     Pseudo is Projector augmented-wave + core cor, Zval =  3.0
     Generated using "atomic" code by A. Dal Corso  v.5.1
     Shape of augmentation charge: PSQ
     Using radial grid of 1135 points,  4 beta functions with: 
                l(1) =   0
                l(2) =   0
                l(3) =   1
                l(4) =   1
     Q(r) pseudized with 0 coefficients 


     PseudoPot. # 3 for Al read from file:
     /home/ben/espresso/pp/Al.pbe-nl-kjpaw_psl.1.0.0.UPF
     MD5 check sum: 339dbea23cf3ab9a065ad45c0f9085d7
     Pseudo is Projector augmented-wave + core cor, Zval =  3.0
     Generated using "atomic" code by A. Dal Corso  v.5.1
     Shape of augmentation charge: PSQ
     Using radial grid of 1135 points,  4 beta functions with: 
                l(1) =   0
                l(2) =   0
                l(3) =   1
                l(4) =   1
     Q(r) pseudized with 0 coefficients 


     PseudoPot. # 4 for Al read from file:
     /home/ben/espresso/pp/Al.pbe-nl-kjpaw_psl.1.0.0.UPF
     MD5 check sum: 339dbea23cf3ab9a065ad45c0f9085d7
     Pseudo is Projector augmented-wave + core cor, Zval =  3.0
     Generated using "atomic" code by A. Dal Corso  v.5.1
     Shape of augmentation charge: PSQ
     Using radial grid of 1135 points,  4 beta functions with: 
                l(1) =   0
                l(2) =   0
                l(3) =   1
                l(4) =   1
     Q(r) pseudized with 0 coefficients 


     atomic species   valence    mass     pseudopotential
        Al1            3.00    26.98200     Al( 1.00)
        Al2            3.00    26.98200     Al( 1.00)
        Al3            3.00    26.98200     Al( 1.00)
        Al4            3.00    26.98200     Al( 1.00)

     No symmetry found



   Cartesian axes

     site n.     atom                  positions (alat units)
         1           Al1 tau(   1) = (   0.9987026   0.0003775   0.0027013  )
         2           Al2 tau(   2) = (   0.5031604   0.4924570   0.0027920  )
         3           Al3 tau(   3) = (   0.4963128   0.0012107   0.5117322  )
         4           Al4 tau(   4) = (   0.9992058   0.5086836   0.5072933  )

     number of k points=    63  Marzari-Vanderbilt smearing, width (Ry)=  0.0200
                       cart. coord. in units 2pi/alat
        k(    1) = (   0.1000000   0.1000000   0.1000000), wk =   0.0320000
        k(    2) = (   0.1000000   0.1000000   0.3000000), wk =   0.0320000
        k(    3) = (   0.1000000   0.1000000  -0.5000000), wk =   0.0320000
        k(    4) = (   0.1000000   0.3000000   0.3000000), wk =   0.0320000
        k(    5) = (   0.1000000   0.3000000  -0.5000000), wk =   0.0320000
        k(    6) = (   0.1000000  -0.5000000  -0.5000000), wk =   0.0320000
        k(    7) = (   0.3000000   0.3000000   0.3000000), wk =   0.0320000
        k(    8) = (   0.3000000   0.3000000  -0.5000000), wk =   0.0320000
        k(    9) = (   0.3000000  -0.5000000  -0.5000000), wk =   0.0320000
        k(   10) = (  -0.5000000  -0.5000000  -0.5000000), wk =   0.0160000
        k(   11) = (  -0.1000000  -0.1000000   0.1000000), wk =   0.0320000
        k(   12) = (  -0.1000000   0.1000000  -0.1000000), wk =   0.0320000
        k(   13) = (   0.1000000  -0.1000000  -0.1000000), wk =   0.0320000
        k(   14) = (  -0.1000000  -0.1000000   0.3000000), wk =   0.0320000
        k(   15) = (  -0.1000000   0.1000000  -0.3000000), wk =   0.0320000
        k(   16) = (   0.1000000  -0.1000000  -0.3000000), wk =   0.0320000
        k(   17) = (   0.3000000  -0.1000000   0.1000000), wk =   0.0320000
        k(   18) = (  -0.3000000  -0.1000000  -0.1000000), wk =   0.0320000
        k(   19) = (   0.3000000   0.1000000  -0.1000000), wk =   0.0320000
        k(   20) = (  -0.3000000   0.1000000   0.1000000), wk =   0.0320000
        k(   21) = (  -0.1000000   0.3000000   0.1000000), wk =   0.0320000
        k(   22) = (  -0.1000000  -0.3000000  -0.1000000), wk =   0.0320000
        k(   23) = (   0.1000000   0.3000000  -0.1000000), wk =   0.0320000
        k(   24) = (   0.1000000  -0.3000000   0.1000000), wk =   0.0320000
        k(   25) = (  -0.1000000   0.1000000   0.5000000), wk =   0.0320000
        k(   26) = (  -0.5000000  -0.1000000   0.1000000), wk =   0.0320000
        k(   27) = (   0.5000000  -0.1000000  -0.1000000), wk =   0.0320000
        k(   28) = (  -0.1000000  -0.5000000   0.1000000), wk =   0.0320000
        k(   29) = (  -0.1000000   0.5000000  -0.1000000), wk =   0.0320000
        k(   30) = (  -0.1000000  -0.3000000   0.3000000), wk =   0.0320000
        k(   31) = (  -0.1000000   0.3000000  -0.3000000), wk =   0.0320000
        k(   32) = (   0.1000000  -0.3000000  -0.3000000), wk =   0.0320000
        k(   33) = (   0.3000000   0.1000000  -0.3000000), wk =   0.0320000
        k(   34) = (  -0.3000000  -0.1000000  -0.3000000), wk =   0.0320000
        k(   35) = (   0.3000000  -0.1000000   0.3000000), wk =   0.0320000
        k(   36) = (  -0.3000000   0.1000000   0.3000000), wk =   0.0320000
        k(   37) = (   0.3000000  -0.3000000   0.1000000), wk =   0.0320000
        k(   38) = (  -0.3000000  -0.3000000  -0.1000000), wk =   0.0320000
        k(   39) = (   0.3000000   0.3000000  -0.1000000), wk =   0.0320000
        k(   40) = (  -0.3000000   0.3000000   0.1000000), wk =   0.0320000
        k(   41) = (  -0.1000000   0.3000000   0.5000000), wk =   0.0320000
        k(   42) = (   0.3000000   0.1000000   0.5000000), wk =   0.0320000
        k(   43) = (   0.3000000  -0.1000000  -0.5000000), wk =   0.0320000
        k(   44) = (  -0.5000000  -0.3000000   0.1000000), wk =   0.0320000
        k(   45) = (   0.5000000  -0.3000000  -0.1000000), wk =   0.0320000
        k(   46) = (  -0.1000000  -0.5000000   0.3000000), wk =   0.0320000
        k(   47) = (  -0.1000000   0.5000000  -0.3000000), wk =   0.0320000
        k(   48) = (   0.3000000  -0.5000000   0.1000000), wk =   0.0320000
        k(   49) = (   0.3000000   0.5000000  -0.1000000), wk =   0.0320000
        k(   50) = (  -0.5000000   0.1000000   0.3000000), wk =   0.0320000
        k(   51) = (   0.5000000  -0.1000000   0.3000000), wk =   0.0320000
        k(   52) = (  -0.5000000   0.1000000   0.5000000), wk =   0.0320000
        k(   53) = (  -0.5000000   0.5000000   0.1000000), wk =   0.0320000
        k(   54) = (  -0.3000000  -0.3000000   0.3000000), wk =   0.0320000
        k(   55) = (  -0.3000000   0.3000000  -0.3000000), wk =   0.0320000
        k(   56) = (   0.3000000  -0.3000000  -0.3000000), wk =   0.0320000
        k(   57) = (  -0.3000000   0.3000000   0.5000000), wk =   0.0320000
        k(   58) = (  -0.5000000  -0.3000000   0.3000000), wk =   0.0320000
        k(   59) = (   0.5000000  -0.3000000  -0.3000000), wk =   0.0320000
        k(   60) = (  -0.3000000  -0.5000000   0.3000000), wk =   0.0320000
        k(   61) = (  -0.3000000   0.5000000  -0.3000000), wk =   0.0320000
        k(   62) = (  -0.5000000   0.3000000   0.5000000), wk =   0.0320000
        k(   63) = (  -0.5000000   0.5000000   0.3000000), wk =   0.0320000

     Dense  grid:    21247 G-vectors     FFT dimensions: (  36,  36,  36)

     Smooth grid:    12533 G-vectors     FFT dimensions: (  30,  30,  30)

     Estimated max dynamical RAM per process >       9.70Mb

     Estimated total allocated dynamical RAM >      38.81Mb

     Initial potential from superposition of free atoms

     starting charge   11.99084, renormalised to   12.00000
     Starting wfc are   16 randomized atomic wfcs
     Checking if some PAW data can be deallocated... 

     total cpu time spent up to now is        2.4 secs

     per-process dynamical memory:    16.8 Mb

     Self-consistent Calculation

     iteration #  1     ecut=    35.00 Ry     beta=0.30
     Davidson diagonalization with overlap
     ethr =  1.00E-02,  avg # of iterations =  3.1

     Threshold (ethr) on eigenvalues was too large:
     Diagonalizing with lowered threshold

     Davidson diagonalization with overlap
     ethr =  1.97E-04,  avg # of iterations =  3.7

     total cpu time spent up to now is        6.1 secs

     total energy              =    -158.00303862 Ry
     Harris-Foulkes estimate   =    -158.00549947 Ry
     estimated scf accuracy    <       0.02313723 Ry

     iteration #  2     ecut=    35.00 Ry     beta=0.30
     Davidson diagonalization with overlap
     ethr =  1.93E-04,  avg # of iterations =  1.6

     total cpu time spent up to now is        7.7 secs

     total energy              =    -157.99856413 Ry
     Harris-Foulkes estimate   =    -158.00319089 Ry
     estimated scf accuracy    <       0.01436516 Ry

     iteration #  3     ecut=    35.00 Ry     beta=0.30
     Davidson diagonalization with overlap
     ethr =  1.20E-04,  avg # of iterations =  1.3

     total cpu time spent up to now is        9.1 secs

     total energy              =    -157.99889212 Ry
     Harris-Foulkes estimate   =    -157.99894663 Ry
     estimated scf accuracy    <       0.00003005 Ry

     iteration #  4     ecut=    35.00 Ry     beta=0.30
     Davidson diagonalization with overlap
     c_bands:  2 eigenvalues not converged
     ethr =  2.50E-07,  avg # of iterations =  7.7

     total cpu time spent up to now is       11.8 secs

     total energy              =    -157.99896677 Ry
     Harris-Foulkes estimate   =    -157.99897931 Ry
     estimated scf accuracy    <       0.00002604 Ry

     iteration #  5     ecut=    35.00 Ry     beta=0.30
     Davidson diagonalization with overlap
     ethr =  2.17E-07,  avg # of iterations =  1.2

     total cpu time spent up to now is       13.3 secs

     total energy              =    -157.99894560 Ry
     Harris-Foulkes estimate   =    -157.99896712 Ry
     estimated scf accuracy    <       0.00001452 Ry

     iteration #  6     ecut=    35.00 Ry     beta=0.30
     Davidson diagonalization with overlap
     ethr =  1.21E-07,  avg # of iterations =  2.1

     total cpu time spent up to now is       15.0 secs

     End of self-consistent calculation

          k = 0.1000 0.1000 0.1000 (  1542 PWs)   bands (ev):

    -2.9550   4.0122   4.0606   4.1064   7.7114   7.7658   7.8175  10.7307
    10.7871  10.8494

          k = 0.1000 0.1000 0.3000 (  1532 PWs)   bands (ev):

    -2.2322   1.3299   4.7081   4.7758   7.9906   8.1111   8.5574   8.5703
    11.3790  11.8034

          k = 0.1000 0.1000-0.5000 (  1556 PWs)   bands (ev):

    -0.8645  -0.7256   5.9440   5.9808   6.2373   6.2744   9.5215   9.5326
    10.2073  10.2184

          k = 0.1000 0.3000 0.3000 (  1565 PWs)   bands (ev):

    -1.5125   1.9999   2.0611   5.3254   5.5968   8.7763   8.8611   9.1745
    12.1301  12.1808

          k = 0.1000 0.3000-0.5000 (  1560 PWs)   bands (ev):

    -0.1520  -0.0130   3.3523   3.4935   6.7250   6.8758  10.0871  10.2448
    10.4514  10.5814

          k = 0.1000-0.5000-0.5000 (  1548 PWs)   bands (ev):

     1.2494   1.2675   1.4003   1.4119   8.0594   8.0826   8.2297   8.2449
    11.7822  11.7963

          k = 0.3000 0.3000 0.3000 (  1556 PWs)   bands (ev):

    -0.7963   2.6775   2.7292   2.7779   6.1341   6.1874   6.2423   9.5751
    13.0435  13.1006

          k = 0.3000 0.3000-0.5000 (  1546 PWs)   bands (ev):

     0.5572   0.6964   3.9573   3.9923   4.2565   4.2911   7.4773   7.6257
    14.1699  14.1956

          k = 0.3000-0.5000-0.5000 (  1564 PWs)   bands (ev):

     1.9514   1.9694   2.1024   2.1139   5.4233   5.4423   5.5795   5.5914
    15.5719  15.5907

          k =-0.5000-0.5000-0.5000 (  1568 PWs)   bands (ev):

     3.2748   3.2897   3.3103   3.3206   3.5527   3.5630   3.5801   3.5978
    19.2136  19.2494

          k =-0.1000-0.1000 0.1000 (  1542 PWs)   bands (ev):

    -2.9550   4.0217   4.0605   4.0963   7.7227   7.7662   7.8066  10.7431
    10.7866  10.8369

          k =-0.1000 0.1000-0.1000 (  1542 PWs)   bands (ev):

    -2.9550   4.0314   4.0603   4.0865   7.7340   7.7659   7.7961  10.7539
    10.7890  10.8233

          k = 0.1000-0.1000-0.1000 (  1542 PWs)   bands (ev):

    -2.9550   4.0268   4.0595   4.0922   7.7278   7.7656   7.8015  10.7484
    10.7876  10.8308

          k =-0.1000-0.1000 0.3000 (  1532 PWs)   bands (ev):

    -2.2322   1.3300   4.7078   4.7755   7.9927   8.1134   8.5555   8.5685
    11.3782  11.8195

          k =-0.1000 0.1000-0.3000 (  1532 PWs)   bands (ev):

    -2.2322   1.3299   4.7259   4.7569   8.0249   8.0802   8.5595   8.5654
    11.3785  11.8142

          k = 0.1000-0.1000-0.3000 (  1532 PWs)   bands (ev):

    -2.2322   1.3299   4.7261   4.7571   8.0211   8.0760   8.5635   8.5693
    11.3775  11.8075

          k = 0.3000-0.1000 0.1000 (  1532 PWs)   bands (ev):

    -2.2317   1.3276   4.7274   4.7589   8.0225   8.0786   8.5604   8.5666
    11.3828  11.7991

          k =-0.3000-0.1000-0.1000 (  1532 PWs)   bands (ev):

    -2.2316   1.3275   4.7148   4.7724   7.9994   8.1021   8.5573   8.5683
    11.3782  11.7790

          k = 0.3000 0.1000-0.1000 (  1532 PWs)   bands (ev):

    -2.2316   1.3275   4.7275   4.7590   8.0223   8.0783   8.5601   8.5662
    11.3837  11.8060

          k =-0.3000 0.1000 0.1000 (  1532 PWs)   bands (ev):

    -2.2317   1.3277   4.7145   4.7721   7.9994   8.1021   8.5574   8.5686
    11.3758  11.8115

          k =-0.1000 0.3000 0.1000 (  1532 PWs)   bands (ev):

    -2.2317   1.3275   4.7388   4.7479   8.0425   8.0582   8.5613   8.5645
    11.3800  11.7692

          k =-0.1000-0.3000-0.1000 (  1532 PWs)   bands (ev):

    -2.2316   1.3273   4.7268   4.7605   8.0205   8.0807   8.5591   8.5655
    11.3837  11.7595

          k = 0.1000 0.3000-0.1000 (  1532 PWs)   bands (ev):

    -2.2316   1.3274   4.7389   4.7478   8.0433   8.0590   8.5618   8.5636
    11.3815  11.7399

          k = 0.1000-0.3000 0.1000 (  1532 PWs)   bands (ev):

    -2.2317   1.3276   4.7263   4.7600   8.0220   8.0822   8.5589   8.5653
    11.3820  11.7484

          k =-0.1000 0.1000 0.5000 (  1556 PWs)   bands (ev):

    -0.8645  -0.7256   5.9556   5.9729   6.2449   6.2621   9.5261   9.5315
    10.2088  10.2140

          k =-0.5000-0.1000 0.1000 (  1556 PWs)   bands (ev):

    -0.8039  -0.7879   5.9831   5.9853   6.2320   6.2356   9.5329   9.5338
    10.2044  10.2070

          k = 0.5000-0.1000-0.1000 (  1556 PWs)   bands (ev):

    -0.8039  -0.7879   5.9807   5.9848   6.2332   6.2378   9.5327   9.5334
    10.2039  10.2050

          k =-0.1000-0.5000 0.1000 (  1556 PWs)   bands (ev):

    -0.7990  -0.7930   5.9840   5.9882   6.2299   6.2340   9.5305   9.5358
    10.2035  10.2074

          k =-0.1000 0.5000-0.1000 (  1556 PWs)   bands (ev):

    -0.7990  -0.7930   5.9827   5.9872   6.2312   6.2352   9.5296   9.5351
    10.2047  10.2083

          k =-0.1000-0.3000 0.3000 (  1565 PWs)   bands (ev):

    -1.5125   2.0136   2.0471   5.3260   5.5968   8.7942   8.8403   9.1769
    12.1602  12.1841

          k =-0.1000 0.3000-0.3000 (  1565 PWs)   bands (ev):

    -1.5125   2.0136   2.0471   5.3255   5.5971   8.7950   8.8415   9.1748
    12.1650  12.1802

          k = 0.1000-0.3000-0.3000 (  1565 PWs)   bands (ev):

    -1.5125   2.0000   2.0611   5.3250   5.5970   8.7747   8.8593   9.1779
    12.1355  12.1722

          k = 0.3000 0.1000-0.3000 (  1565 PWs)   bands (ev):

    -1.5125   2.0254   2.0353   5.3253   5.5971   8.8081   8.8234   9.1807
    12.1507  12.2076

          k =-0.3000-0.1000-0.3000 (  1565 PWs)   bands (ev):

    -1.5125   2.0124   2.0482   5.3262   5.5967   8.7876   8.8376   9.1870
    12.1496  12.1814

          k = 0.3000-0.1000 0.3000 (  1565 PWs)   bands (ev):

    -1.5125   2.0125   2.0483   5.3250   5.5974   8.7902   8.8401   9.1819
    12.1555  12.1810

          k =-0.3000 0.1000 0.3000 (  1565 PWs)   bands (ev):

    -1.5125   2.0255   2.0353   5.3257   5.5969   8.8035   8.8205   9.1882
    12.1494  12.2057

          k = 0.3000-0.3000 0.1000 (  1565 PWs)   bands (ev):

    -1.5120   2.0131   2.0460   5.3257   5.5969   8.7969   8.8423   9.1761
    12.1559  12.1824

          k =-0.3000-0.3000-0.1000 (  1565 PWs)   bands (ev):

    -1.5119   1.9937   2.0656   5.3264   5.5964   8.7697   8.8692   9.1752
    12.1326  12.1733

          k = 0.3000 0.3000-0.1000 (  1565 PWs)   bands (ev):

    -1.5119   1.9937   2.0656   5.3256   5.5969   8.7699   8.8694   9.1760
    12.1344  12.1691

          k =-0.3000 0.3000 0.1000 (  1565 PWs)   bands (ev):

    -1.5120   2.0131   2.0460   5.3266   5.5963   8.7964   8.8419   9.1747
    12.1551  12.1889

          k =-0.1000 0.3000 0.5000 (  1560 PWs)   bands (ev):

    -0.1520  -0.0130   3.3524   3.4937   6.7246   6.8754  10.0865  10.2436
    10.4533  10.5825

          k = 0.3000 0.1000 0.5000 (  1560 PWs)   bands (ev):

    -0.1519  -0.0129   3.3521   3.4934   6.7252   6.8759  10.0838  10.2420
    10.4542  10.5849

          k = 0.3000-0.1000-0.5000 (  1560 PWs)   bands (ev):

    -0.1519  -0.0129   3.3523   3.4936   6.7248   6.8755  10.0832  10.2412
    10.4554  10.5861

          k =-0.5000-0.3000 0.1000 (  1560 PWs)   bands (ev):

    -0.0914  -0.0754   3.4140   3.4303   6.7921   6.8095  10.1598  10.1783
    10.5077  10.5227

          k = 0.5000-0.3000-0.1000 (  1560 PWs)   bands (ev):

    -0.0914  -0.0754   3.4140   3.4303   6.7926   6.8100  10.1517  10.1704
    10.5139  10.5312

          k =-0.1000-0.5000 0.3000 (  1560 PWs)   bands (ev):

    -0.0871  -0.0809   3.4218   3.4274   6.7946   6.8019  10.1629  10.1700
    10.5139  10.5192

          k =-0.1000 0.5000-0.3000 (  1560 PWs)   bands (ev):

    -0.0871  -0.0809   3.4217   3.4273   6.7947   6.8019  10.1657  10.1717
    10.5109  10.5179

          k = 0.3000-0.5000 0.1000 (  1560 PWs)   bands (ev):

    -0.0865  -0.0804   3.4190   3.4254   6.7979   6.8040  10.1612  10.1719
    10.5142  10.5206

          k = 0.3000 0.5000-0.1000 (  1560 PWs)   bands (ev):

    -0.0865  -0.0804   3.4191   3.4255   6.7979   6.8040  10.1573  10.1705
    10.5151  10.5252

          k =-0.5000 0.1000 0.3000 (  1560 PWs)   bands (ev):

    -0.0919  -0.0759   3.4161   3.4325   6.7901   6.8075  10.1502  10.1688
    10.5150  10.5308

          k = 0.5000-0.1000 0.3000 (  1560 PWs)   bands (ev):

    -0.0919  -0.0759   3.4162   3.4325   6.7897   6.8070  10.1568  10.1759
    10.5096  10.5245

          k =-0.5000 0.1000 0.5000 (  1548 PWs)   bands (ev):

     1.2515   1.2714   1.3920   1.4139   8.0636   8.0874   8.2192   8.2454
    11.7820  11.7992

          k =-0.5000 0.5000 0.1000 (  1548 PWs)   bands (ev):

     1.2941   1.3130   1.3484   1.3700   8.1065   8.1316   8.1772   8.2050
    11.8402  11.8464

          k =-0.3000-0.3000 0.3000 (  1556 PWs)   bands (ev):

    -0.7963   2.6875   2.7296   2.7670   6.1462   6.1862   6.2317   9.5758
    13.0556  13.1010

          k =-0.3000 0.3000-0.3000 (  1556 PWs)   bands (ev):

    -0.7964   2.6982   2.7287   2.7570   6.1562   6.1886   6.2194   9.5761
    13.0675  13.1023

          k = 0.3000-0.3000-0.3000 (  1556 PWs)   bands (ev):

    -0.7964   2.6932   2.7280   2.7630   6.1503   6.1879   6.2254   9.5748
    13.0615  13.1004

          k =-0.3000 0.3000 0.5000 (  1546 PWs)   bands (ev):

     0.5571   0.6963   3.9690   3.9855   4.2631   4.2791   7.4774   7.6258
    14.1796  14.1924

          k =-0.5000-0.3000 0.3000 (  1546 PWs)   bands (ev):

     0.6173   0.6333   3.9939   3.9960   4.2516   4.2549   7.5448   7.5621
    14.1933  14.1952

          k = 0.5000-0.3000-0.3000 (  1546 PWs)   bands (ev):

     0.6173   0.6333   3.9910   3.9949   4.2534   4.2577   7.5441   7.5613
    14.1935  14.1953

          k =-0.3000-0.5000 0.3000 (  1546 PWs)   bands (ev):

     0.6221   0.6283   3.9945   3.9985   4.2499   4.2537   7.5501   7.5563
    14.1963  14.6018

          k =-0.3000 0.5000-0.3000 (  1546 PWs)   bands (ev):

     0.6221   0.6283   3.9932   3.9974   4.2512   4.2548   7.5503   7.5565
    14.1899  14.1972

          k =-0.5000 0.3000 0.5000 (  1564 PWs)   bands (ev):

     1.9534   1.9732   2.0941   2.1160   5.4258   5.4464   5.5709   5.5937
    15.5741  15.5952

          k =-0.5000 0.5000 0.3000 (  1564 PWs)   bands (ev):

     1.9958   2.0146   2.0497   2.0712   5.4718   5.4915   5.5282   5.5507
    15.6214  15.6385

     the Fermi energy is     8.0701 ev

!    total energy              =    -157.99894900 Ry
     Harris-Foulkes estimate   =    -157.99894925 Ry
     estimated scf accuracy    <       0.00000027 Ry

     total all-electron energy =     -1942.570077 Ry

     The total energy is the sum of the following terms:

     one-electron contribution =      12.68383286 Ry
     hartree contribution      =       0.02566810 Ry
     xc contribution           =     -10.36857069 Ry
     ewald contribution        =     -21.62892963 Ry
     one-center paw contrib.   =    -138.70929346 Ry
     smearing contrib. (-TS)   =      -0.00165618 Ry

     convergence has been achieved in   6 iterations

     Forces acting on atoms (Ry/au):

     atom    1 type  1   force =     0.00063904    0.00001377    0.00466153
     atom    2 type  2   force =    -0.00197781    0.00356522    0.00462885
     atom    3 type  3   force =     0.00088356   -0.00035151   -0.00558199
     atom    4 type  4   force =     0.00045520   -0.00322748   -0.00370838

     Total force =     0.010799     Total SCF correction =     0.000237


     entering subroutine stress ...

          total   stress  (Ry/bohr**3)                   (kbar)     P=    1.62
   0.00001034  -0.00000138  -0.00000210          1.52     -0.20     -0.31
  -0.00000138   0.00001743   0.00000521         -0.20      2.56      0.77
  -0.00000210   0.00000521   0.00000522         -0.31      0.77      0.77


     Writing output data file template.save

     init_run     :      1.35s CPU      1.39s WALL (       1 calls)
     electrons    :     12.36s CPU     12.60s WALL (       1 calls)
     forces       :      0.16s CPU      0.17s WALL (       1 calls)
     stress       :      0.48s CPU      0.48s WALL (       1 calls)

     Called by init_run:
     wfcinit      :      0.85s CPU      0.86s WALL (       1 calls)
     potinit      :      0.11s CPU      0.12s WALL (       1 calls)

     Called by electrons:
     c_bands      :     10.00s CPU     10.16s WALL (       7 calls)
     sum_band     :      1.74s CPU      1.80s WALL (       7 calls)
     v_of_rho     :      0.08s CPU      0.09s WALL (       7 calls)
     newd         :      0.10s CPU      0.10s WALL (       7 calls)
     PAW_pot      :      0.48s CPU      0.49s WALL (       7 calls)
     mix_rho      :      0.05s CPU      0.05s WALL (       7 calls)

     Called by c_bands:
     init_us_2    :      0.26s CPU      0.24s WALL (    1071 calls)
     cegterg      :      9.72s CPU      9.89s WALL (     441 calls)

     Called by sum_band:
     sum_band:bec :      0.00s CPU      0.00s WALL (     441 calls)
     addusdens    :      0.11s CPU      0.12s WALL (       7 calls)

     Called by *egterg:
     h_psi        :      9.26s CPU      9.37s WALL (    1809 calls)
     s_psi        :      0.13s CPU      0.16s WALL (    1809 calls)
     g_psi        :      0.02s CPU      0.02s WALL (    1305 calls)
     cdiaghg      :      0.37s CPU      0.40s WALL (    1683 calls)

     Called by h_psi:
     h_psi:pot    :      9.23s CPU      9.35s WALL (    1809 calls)
     h_psi:calbec :      0.25s CPU      0.26s WALL (    1809 calls)
     vloc_psi     :      8.81s CPU      8.91s WALL (    1809 calls)
     add_vuspsi   :      0.16s CPU      0.18s WALL (    1809 calls)

     General routines
     calbec       :      0.38s CPU      0.39s WALL (    2565 calls)
     fft          :      0.07s CPU      0.09s WALL (     137 calls)
     ffts         :      0.05s CPU      0.03s WALL (      79 calls)
     fftw         :      9.78s CPU      9.93s WALL (   30470 calls)
     interpolate  :      0.02s CPU      0.02s WALL (      14 calls)
     davcio       :      0.00s CPU      0.00s WALL (      63 calls)

     Parallel routines
     fft_scatter  :      2.30s CPU      2.29s WALL (   30686 calls)

     PWSCF        :    15.44s CPU        15.83s WALL


   This run was terminated on:  15:50: 4   9Jun2017            

=------------------------------------------------------------------------------=
   JOB DONE.
=------------------------------------------------------------------------------=
