
     Program PWSCF v.6.0 (svn rev. 13079) starts on  9Jun2017 at 15:55:28 

     This program is part of the open-source Quantum ESPRESSO suite
     for quantum simulation of materials; please cite
         "P. Giannozzi et al., J. Phys.:Condens. Matter 21 395502 (2009);
          URL http://www.quantum-espresso.org", 
     in publications or presentations arising from this work. More details at
     http://www.quantum-espresso.org/quote

     Parallel version (MPI), running on     4 processors
     R & G space division:  proc/nbgrp/npool/nimage =       4
     Waiting for input...
     Reading input from standard input
Warning: card &IONS ignored
Warning: card ION_DYNAMICS='BFGS', ignored
Warning: card / ignored
Warning: card &CELL ignored
Warning: card CELL_DYNAMICS='BFGS', ignored
Warning: card PRESS = 0.0, ignored
Warning: card CELL_FACTOR = 2.0, ignored
Warning: card / ignored

     Current dimensions of program PWSCF are:
     Max number of different atomic species (ntypx) = 10
     Max number of k-points (npk) =  40000
     Max angular momentum in pseudopotentials (lmaxx) =  3
               file Al.pbe-nl-kjpaw_psl.1.0.0.UPF: wavefunction(s)  3S 3P renormalized
               file Al.pbe-nl-kjpaw_psl.1.0.0.UPF: wavefunction(s)  3S 3P renormalized
               file Al.pbe-nl-kjpaw_psl.1.0.0.UPF: wavefunction(s)  3S 3P renormalized
               file Al.pbe-nl-kjpaw_psl.1.0.0.UPF: wavefunction(s)  3S 3P renormalized

     Subspace diagonalization in iterative solution of the eigenvalue problem:
     a serial algorithm will be used


     Parallelization info
     --------------------
     sticks:   dense  smooth     PW     G-vecs:    dense   smooth      PW
     Min         232     164     49                 5310     3132     527
     Max         234     165     50                 5313     3135     528
     Sum         933     657    197                21247    12533    2109



     bravais-lattice index     =            0
     lattice parameter (alat)  =       7.6300  a.u.
     unit-cell volume          =     444.1949 (a.u.)^3
     number of atoms/cell      =            4
     number of atomic types    =            4
     number of electrons       =        12.00
     number of Kohn-Sham states=           10
     kinetic-energy cutoff     =      35.0000  Ry
     charge density cutoff     =     200.0000  Ry
     convergence threshold     =      1.0E-06
     mixing beta               =       0.3000
     number of iterations used =           10  local-TF  mixing
     Exchange-correlation      =  SLA  PW   PBX  PBC ( 1  4  3  4 0 0)

     celldm(1)=   7.630000  celldm(2)=   0.000000  celldm(3)=   0.000000
     celldm(4)=   0.000000  celldm(5)=   0.000000  celldm(6)=   0.000000

     crystal axes: (cart. coord. in units of alat)
               a(1) = (   1.000000   0.000000   0.000000 )  
               a(2) = (   0.000000   1.000000   0.000000 )  
               a(3) = (   0.000000   0.000000   1.000000 )  

     reciprocal axes: (cart. coord. in units 2 pi/alat)
               b(1) = (  1.000000  0.000000  0.000000 )  
               b(2) = (  0.000000  1.000000  0.000000 )  
               b(3) = (  0.000000  0.000000  1.000000 )  


     PseudoPot. # 1 for Al read from file:
     /home/ben/espresso/pp/Al.pbe-nl-kjpaw_psl.1.0.0.UPF
     MD5 check sum: 339dbea23cf3ab9a065ad45c0f9085d7
     Pseudo is Projector augmented-wave + core cor, Zval =  3.0
     Generated using "atomic" code by A. Dal Corso  v.5.1
     Shape of augmentation charge: PSQ
     Using radial grid of 1135 points,  4 beta functions with: 
                l(1) =   0
                l(2) =   0
                l(3) =   1
                l(4) =   1
     Q(r) pseudized with 0 coefficients 


     PseudoPot. # 2 for Al read from file:
     /home/ben/espresso/pp/Al.pbe-nl-kjpaw_psl.1.0.0.UPF
     MD5 check sum: 339dbea23cf3ab9a065ad45c0f9085d7
     Pseudo is Projector augmented-wave + core cor, Zval =  3.0
     Generated using "atomic" code by A. Dal Corso  v.5.1
     Shape of augmentation charge: PSQ
     Using radial grid of 1135 points,  4 beta functions with: 
                l(1) =   0
                l(2) =   0
                l(3) =   1
                l(4) =   1
     Q(r) pseudized with 0 coefficients 


     PseudoPot. # 3 for Al read from file:
     /home/ben/espresso/pp/Al.pbe-nl-kjpaw_psl.1.0.0.UPF
     MD5 check sum: 339dbea23cf3ab9a065ad45c0f9085d7
     Pseudo is Projector augmented-wave + core cor, Zval =  3.0
     Generated using "atomic" code by A. Dal Corso  v.5.1
     Shape of augmentation charge: PSQ
     Using radial grid of 1135 points,  4 beta functions with: 
                l(1) =   0
                l(2) =   0
                l(3) =   1
                l(4) =   1
     Q(r) pseudized with 0 coefficients 


     PseudoPot. # 4 for Al read from file:
     /home/ben/espresso/pp/Al.pbe-nl-kjpaw_psl.1.0.0.UPF
     MD5 check sum: 339dbea23cf3ab9a065ad45c0f9085d7
     Pseudo is Projector augmented-wave + core cor, Zval =  3.0
     Generated using "atomic" code by A. Dal Corso  v.5.1
     Shape of augmentation charge: PSQ
     Using radial grid of 1135 points,  4 beta functions with: 
                l(1) =   0
                l(2) =   0
                l(3) =   1
                l(4) =   1
     Q(r) pseudized with 0 coefficients 


     atomic species   valence    mass     pseudopotential
        Al1            3.00    26.98200     Al( 1.00)
        Al2            3.00    26.98200     Al( 1.00)
        Al3            3.00    26.98200     Al( 1.00)
        Al4            3.00    26.98200     Al( 1.00)

     No symmetry found



   Cartesian axes

     site n.     atom                  positions (alat units)
         1           Al1 tau(   1) = (   0.9976223   0.0006919   0.0049502  )
         2           Al2 tau(   2) = (   0.5057917   0.4861769   0.0051166  )
         3           Al3 tau(   3) = (   0.4932430   0.0022187   0.5215001  )
         4           Al4 tau(   4) = (   0.9985445   0.5159133   0.5133654  )

     number of k points=    63  Marzari-Vanderbilt smearing, width (Ry)=  0.0200
                       cart. coord. in units 2pi/alat
        k(    1) = (   0.1000000   0.1000000   0.1000000), wk =   0.0320000
        k(    2) = (   0.1000000   0.1000000   0.3000000), wk =   0.0320000
        k(    3) = (   0.1000000   0.1000000  -0.5000000), wk =   0.0320000
        k(    4) = (   0.1000000   0.3000000   0.3000000), wk =   0.0320000
        k(    5) = (   0.1000000   0.3000000  -0.5000000), wk =   0.0320000
        k(    6) = (   0.1000000  -0.5000000  -0.5000000), wk =   0.0320000
        k(    7) = (   0.3000000   0.3000000   0.3000000), wk =   0.0320000
        k(    8) = (   0.3000000   0.3000000  -0.5000000), wk =   0.0320000
        k(    9) = (   0.3000000  -0.5000000  -0.5000000), wk =   0.0320000
        k(   10) = (  -0.5000000  -0.5000000  -0.5000000), wk =   0.0160000
        k(   11) = (  -0.1000000  -0.1000000   0.1000000), wk =   0.0320000
        k(   12) = (  -0.1000000   0.1000000  -0.1000000), wk =   0.0320000
        k(   13) = (   0.1000000  -0.1000000  -0.1000000), wk =   0.0320000
        k(   14) = (  -0.1000000  -0.1000000   0.3000000), wk =   0.0320000
        k(   15) = (  -0.1000000   0.1000000  -0.3000000), wk =   0.0320000
        k(   16) = (   0.1000000  -0.1000000  -0.3000000), wk =   0.0320000
        k(   17) = (   0.3000000  -0.1000000   0.1000000), wk =   0.0320000
        k(   18) = (  -0.3000000  -0.1000000  -0.1000000), wk =   0.0320000
        k(   19) = (   0.3000000   0.1000000  -0.1000000), wk =   0.0320000
        k(   20) = (  -0.3000000   0.1000000   0.1000000), wk =   0.0320000
        k(   21) = (  -0.1000000   0.3000000   0.1000000), wk =   0.0320000
        k(   22) = (  -0.1000000  -0.3000000  -0.1000000), wk =   0.0320000
        k(   23) = (   0.1000000   0.3000000  -0.1000000), wk =   0.0320000
        k(   24) = (   0.1000000  -0.3000000   0.1000000), wk =   0.0320000
        k(   25) = (  -0.1000000   0.1000000   0.5000000), wk =   0.0320000
        k(   26) = (  -0.5000000  -0.1000000   0.1000000), wk =   0.0320000
        k(   27) = (   0.5000000  -0.1000000  -0.1000000), wk =   0.0320000
        k(   28) = (  -0.1000000  -0.5000000   0.1000000), wk =   0.0320000
        k(   29) = (  -0.1000000   0.5000000  -0.1000000), wk =   0.0320000
        k(   30) = (  -0.1000000  -0.3000000   0.3000000), wk =   0.0320000
        k(   31) = (  -0.1000000   0.3000000  -0.3000000), wk =   0.0320000
        k(   32) = (   0.1000000  -0.3000000  -0.3000000), wk =   0.0320000
        k(   33) = (   0.3000000   0.1000000  -0.3000000), wk =   0.0320000
        k(   34) = (  -0.3000000  -0.1000000  -0.3000000), wk =   0.0320000
        k(   35) = (   0.3000000  -0.1000000   0.3000000), wk =   0.0320000
        k(   36) = (  -0.3000000   0.1000000   0.3000000), wk =   0.0320000
        k(   37) = (   0.3000000  -0.3000000   0.1000000), wk =   0.0320000
        k(   38) = (  -0.3000000  -0.3000000  -0.1000000), wk =   0.0320000
        k(   39) = (   0.3000000   0.3000000  -0.1000000), wk =   0.0320000
        k(   40) = (  -0.3000000   0.3000000   0.1000000), wk =   0.0320000
        k(   41) = (  -0.1000000   0.3000000   0.5000000), wk =   0.0320000
        k(   42) = (   0.3000000   0.1000000   0.5000000), wk =   0.0320000
        k(   43) = (   0.3000000  -0.1000000  -0.5000000), wk =   0.0320000
        k(   44) = (  -0.5000000  -0.3000000   0.1000000), wk =   0.0320000
        k(   45) = (   0.5000000  -0.3000000  -0.1000000), wk =   0.0320000
        k(   46) = (  -0.1000000  -0.5000000   0.3000000), wk =   0.0320000
        k(   47) = (  -0.1000000   0.5000000  -0.3000000), wk =   0.0320000
        k(   48) = (   0.3000000  -0.5000000   0.1000000), wk =   0.0320000
        k(   49) = (   0.3000000   0.5000000  -0.1000000), wk =   0.0320000
        k(   50) = (  -0.5000000   0.1000000   0.3000000), wk =   0.0320000
        k(   51) = (   0.5000000  -0.1000000   0.3000000), wk =   0.0320000
        k(   52) = (  -0.5000000   0.1000000   0.5000000), wk =   0.0320000
        k(   53) = (  -0.5000000   0.5000000   0.1000000), wk =   0.0320000
        k(   54) = (  -0.3000000  -0.3000000   0.3000000), wk =   0.0320000
        k(   55) = (  -0.3000000   0.3000000  -0.3000000), wk =   0.0320000
        k(   56) = (   0.3000000  -0.3000000  -0.3000000), wk =   0.0320000
        k(   57) = (  -0.3000000   0.3000000   0.5000000), wk =   0.0320000
        k(   58) = (  -0.5000000  -0.3000000   0.3000000), wk =   0.0320000
        k(   59) = (   0.5000000  -0.3000000  -0.3000000), wk =   0.0320000
        k(   60) = (  -0.3000000  -0.5000000   0.3000000), wk =   0.0320000
        k(   61) = (  -0.3000000   0.5000000  -0.3000000), wk =   0.0320000
        k(   62) = (  -0.5000000   0.3000000   0.5000000), wk =   0.0320000
        k(   63) = (  -0.5000000   0.5000000   0.3000000), wk =   0.0320000

     Dense  grid:    21247 G-vectors     FFT dimensions: (  36,  36,  36)

     Smooth grid:    12533 G-vectors     FFT dimensions: (  30,  30,  30)

     Estimated max dynamical RAM per process >       9.70Mb

     Estimated total allocated dynamical RAM >      38.81Mb

     Initial potential from superposition of free atoms

     starting charge   11.99084, renormalised to   12.00000
     Starting wfc are   16 randomized atomic wfcs
     Checking if some PAW data can be deallocated... 

     total cpu time spent up to now is        2.3 secs

     per-process dynamical memory:    16.9 Mb

     Self-consistent Calculation

     iteration #  1     ecut=    35.00 Ry     beta=0.30
     Davidson diagonalization with overlap
     ethr =  1.00E-02,  avg # of iterations =  3.1

     Threshold (ethr) on eigenvalues was too large:
     Diagonalizing with lowered threshold

     Davidson diagonalization with overlap
     ethr =  2.05E-04,  avg # of iterations =  4.1

     total cpu time spent up to now is        6.1 secs

     total energy              =    -158.00196491 Ry
     Harris-Foulkes estimate   =    -158.00457288 Ry
     estimated scf accuracy    <       0.02411988 Ry

     iteration #  2     ecut=    35.00 Ry     beta=0.30
     Davidson diagonalization with overlap
     ethr =  2.01E-04,  avg # of iterations =  1.2

     total cpu time spent up to now is        9.5 secs

     total energy              =    -157.99719869 Ry
     Harris-Foulkes estimate   =    -158.00213172 Ry
     estimated scf accuracy    <       0.01494438 Ry

     iteration #  3     ecut=    35.00 Ry     beta=0.30
     Davidson diagonalization with overlap
     ethr =  1.25E-04,  avg # of iterations =  1.4

     total cpu time spent up to now is       14.2 secs

     total energy              =    -157.99766067 Ry
     Harris-Foulkes estimate   =    -157.99771041 Ry
     estimated scf accuracy    <       0.00003643 Ry

     iteration #  4     ecut=    35.00 Ry     beta=0.30
     Davidson diagonalization with overlap
     ethr =  3.04E-07,  avg # of iterations =  7.6

     total cpu time spent up to now is       21.3 secs

     total energy              =    -157.99777078 Ry
     Harris-Foulkes estimate   =    -157.99777298 Ry
     estimated scf accuracy    <       0.00005289 Ry

     iteration #  5     ecut=    35.00 Ry     beta=0.30
     Davidson diagonalization with overlap
     ethr =  3.04E-07,  avg # of iterations =  1.0

     total cpu time spent up to now is       22.6 secs

     total energy              =    -157.99771496 Ry
     Harris-Foulkes estimate   =    -157.99777085 Ry
     estimated scf accuracy    <       0.00004922 Ry

     iteration #  6     ecut=    35.00 Ry     beta=0.30
     Davidson diagonalization with overlap
     ethr =  3.04E-07,  avg # of iterations =  2.3

     total cpu time spent up to now is       24.3 secs

     total energy              =    -157.99772952 Ry
     Harris-Foulkes estimate   =    -157.99773056 Ry
     estimated scf accuracy    <       0.00000582 Ry

     iteration #  7     ecut=    35.00 Ry     beta=0.30
     Davidson diagonalization with overlap
     ethr =  4.85E-08,  avg # of iterations =  1.0

     total cpu time spent up to now is       25.8 secs

     total energy              =    -157.99772798 Ry
     Harris-Foulkes estimate   =    -157.99772971 Ry
     estimated scf accuracy    <       0.00000281 Ry

     iteration #  8     ecut=    35.00 Ry     beta=0.30
     Davidson diagonalization with overlap
     ethr =  2.34E-08,  avg # of iterations =  2.2

     total cpu time spent up to now is       27.5 secs

     End of self-consistent calculation

          k = 0.1000 0.1000 0.1000 (  1542 PWs)   bands (ev):

    -2.9584   3.9693   4.0601   4.1417   7.6611   7.7628   7.8553  10.6823
    10.7814  10.8997

          k = 0.1000 0.1000 0.3000 (  1532 PWs)   bands (ev):

    -2.2369   1.3307   4.6748   4.7985   7.9351   8.1541   8.5528   8.5763
    11.3721  11.7657

          k = 0.1000 0.1000-0.5000 (  1556 PWs)   bands (ev):

    -0.9223  -0.6712   5.8715   5.9666   6.2462   6.3424   9.4917   9.5270
    10.2060  10.2408

          k = 0.1000 0.3000 0.3000 (  1565 PWs)   bands (ev):

    -1.5173   1.9724   2.0845   5.3216   5.5949   8.7380   8.8930   9.1707
    12.0648  12.1770

          k = 0.1000 0.3000-0.5000 (  1560 PWs)   bands (ev):

    -0.2101   0.0412   3.2930   3.5484   6.6620   6.9350  10.0168  10.2962
    10.4057  10.6349

          k = 0.1000-0.5000-0.5000 (  1548 PWs)   bands (ev):

     1.1775   1.2162   1.4563   1.4719   7.9763   8.0257   8.2921   8.3132
    11.7131  11.7453

          k = 0.3000 0.3000 0.3000 (  1556 PWs)   bands (ev):

    -0.8012   2.6318   2.7287   2.8156   6.0888   6.1853   6.2867   9.5747
    12.9899  13.0954

          k = 0.3000 0.3000-0.5000 (  1546 PWs)   bands (ev):

     0.4988   0.7506   3.8887   3.9810   4.2648   4.3557   7.4153   7.6839
    14.1113  14.1873

          k = 0.3000-0.5000-0.5000 (  1564 PWs)   bands (ev):

     1.8790   1.9176   2.1582   2.1735   5.3491   5.3901   5.6382   5.6542
    15.4887  15.5336

          k =-0.5000-0.5000-0.5000 (  1568 PWs)   bands (ev):

     3.1943   3.2287   3.2816   3.3112   3.5617   3.5905   3.6336   3.6745
    19.0721  19.1369

          k =-0.1000-0.1000 0.1000 (  1542 PWs)   bands (ev):

    -2.9584   3.9866   4.0596   4.1230   7.6823   7.7640   7.8359  10.7050
    10.7795  10.8767

          k =-0.1000 0.1000-0.1000 (  1542 PWs)   bands (ev):

    -2.9584   4.0041   4.0590   4.1049   7.7035   7.7633   7.8170  10.7227
    10.7876  10.8496

          k = 0.1000-0.1000-0.1000 (  1542 PWs)   bands (ev):

    -2.9584   3.9965   4.0563   4.1164   7.6916   7.7620   7.8264  10.7141
    10.7830  10.8652

          k =-0.1000-0.1000 0.3000 (  1532 PWs)   bands (ev):

    -2.2369   1.3311   4.6737   4.7976   7.9418   8.1626   8.5461   8.5707
    11.3695  11.8014

          k =-0.1000 0.1000-0.3000 (  1532 PWs)   bands (ev):

    -2.2369   1.3310   4.7066   4.7631   8.0000   8.1008   8.5548   8.5652
    11.3702  11.7942

          k = 0.1000-0.1000-0.3000 (  1532 PWs)   bands (ev):

    -2.2369   1.3309   4.7074   4.7640   7.9879   8.0866   8.5676   8.5780
    11.3674  11.7797

          k = 0.3000-0.1000 0.1000 (  1532 PWs)   bands (ev):

    -2.2352   1.3234   4.7118   4.7694   7.9929   8.0951   8.5574   8.5690
    11.3846  11.7610

          k =-0.3000-0.1000-0.1000 (  1532 PWs)   bands (ev):

    -2.2351   1.3229   4.6895   4.7948   7.9505   8.1383   8.5506   8.5712
    11.3688  11.7247

          k = 0.3000 0.1000-0.1000 (  1532 PWs)   bands (ev):

    -2.2351   1.3231   4.7124   4.7699   7.9920   8.0942   8.5565   8.5679
    11.3877  11.7740

          k =-0.3000 0.1000 0.1000 (  1532 PWs)   bands (ev):

    -2.2352   1.3236   4.6886   4.7940   7.9509   8.1383   8.5509   8.5723
    11.3617  11.7841

          k =-0.1000 0.3000 0.1000 (  1532 PWs)   bands (ev):

    -2.2352   1.3229   4.7326   4.7502   8.0285   8.0579   8.5565   8.5660
    11.3751  11.7077

          k =-0.1000-0.3000-0.1000 (  1532 PWs)   bands (ev):

    -2.2351   1.3225   4.7114   4.7732   7.9889   8.0992   8.5528   8.5655
    11.3877  11.6868

          k = 0.1000 0.3000-0.1000 (  1532 PWs)   bands (ev):

    -2.2351   1.3227   4.7330   4.7496   8.0313   8.0606   8.5589   8.5624
    11.3799  11.6530

          k = 0.1000-0.3000 0.1000 (  1532 PWs)   bands (ev):

    -2.2352   1.3232   4.7098   4.7718   7.9938   8.1041   8.5523   8.5652
    11.3818  11.6658

          k =-0.1000 0.1000 0.5000 (  1556 PWs)   bands (ev):

    -0.9223  -0.6712   5.8989   5.9438   6.2684   6.3127   9.5059   9.5232
    10.2104  10.2279

          k =-0.5000-0.1000 0.1000 (  1556 PWs)   bands (ev):

    -0.8143  -0.7850   5.9729   5.9798   6.2306   6.2412   9.5275   9.5308
    10.1975  10.2042

          k = 0.5000-0.1000-0.1000 (  1556 PWs)   bands (ev):

    -0.8143  -0.7850   5.9656   5.9782   6.2344   6.2484   9.5271   9.5291
    10.1951  10.1985

          k =-0.1000-0.5000 0.1000 (  1556 PWs)   bands (ev):

    -0.8077  -0.7919   5.9755   5.9899   6.2226   6.2372   9.5193   9.5376
    10.1931  10.2069

          k =-0.1000 0.5000-0.1000 (  1556 PWs)   bands (ev):

    -0.8077  -0.7919   5.9710   5.9869   6.2274   6.2408   9.5165   9.5355
    10.1974  10.2096

          k =-0.1000-0.3000 0.3000 (  1565 PWs)   bands (ev):

    -1.5174   1.9971   2.0589   5.3235   5.5950   8.7688   8.8523   9.1789
    12.1270  12.1759

          k =-0.1000 0.3000-0.3000 (  1565 PWs)   bands (ev):

    -1.5175   1.9972   2.0590   5.3220   5.5959   8.7714   8.8566   9.1715
    12.1372  12.1720

          k = 0.1000-0.3000-0.3000 (  1565 PWs)   bands (ev):

    -1.5174   1.9727   2.0847   5.3203   5.5957   8.7329   8.8867   9.1821
    12.0744  12.1551

          k = 0.3000 0.1000-0.3000 (  1565 PWs)   bands (ev):

    -1.5174   2.0181   2.0378   5.3212   5.5960   8.7885   8.8235   9.1905
    12.1201  12.1991

          k =-0.3000-0.1000-0.3000 (  1565 PWs)   bands (ev):

    -1.5172   1.9947   2.0610   5.3243   5.5946   8.7496   8.8428   9.2101
    12.1124  12.1551

          k = 0.3000-0.1000 0.3000 (  1565 PWs)   bands (ev):

    -1.5173   1.9951   2.0613   5.3201   5.5970   8.7580   8.8505   9.1944
    12.1239  12.1610

          k =-0.3000 0.1000 0.3000 (  1565 PWs)   bands (ev):

    -1.5174   2.0184   2.0378   5.3226   5.5952   8.7738   8.8153   9.2133
    12.1111  12.1923

          k = 0.3000-0.3000 0.1000 (  1565 PWs)   bands (ev):

    -1.5157   1.9953   2.0555   5.3226   5.5951   8.7773   8.8595   9.1759
    12.1182  12.1686

          k =-0.3000-0.3000-0.1000 (  1565 PWs)   bands (ev):

    -1.5155   1.9599   2.0913   5.3249   5.5936   8.7273   8.9083   9.1731
    12.0670  12.1725

          k = 0.3000 0.3000-0.1000 (  1565 PWs)   bands (ev):

    -1.5155   1.9601   2.0915   5.3223   5.5952   8.7278   8.9090   9.1757
    12.0662  12.1644

          k =-0.3000 0.3000 0.1000 (  1565 PWs)   bands (ev):

    -1.5157   1.9953   2.0555   5.3254   5.5932   8.7757   8.8581   9.1712
    12.1213  12.1854

          k =-0.1000 0.3000 0.5000 (  1560 PWs)   bands (ev):

    -0.2102   0.0412   3.2935   3.5489   6.6607   6.9338  10.0148  10.2897
    10.4148  10.6379

          k = 0.3000 0.1000 0.5000 (  1560 PWs)   bands (ev):

    -0.2100   0.0414   3.2923   3.5480   6.6626   6.9353  10.0059  10.2909
    10.4105  10.6462

          k = 0.3000-0.1000-0.5000 (  1560 PWs)   bands (ev):

    -0.2100   0.0414   3.2928   3.5485   6.6613   6.9340  10.0043  10.2877
    10.4149  10.6500

          k =-0.5000-0.3000 0.1000 (  1560 PWs)   bands (ev):

    -0.1021  -0.0729   3.4033   3.4333   6.7838   6.8159  10.1514  10.1860
    10.5004  10.5276

          k = 0.5000-0.3000-0.1000 (  1560 PWs)   bands (ev):

    -0.1021  -0.0728   3.4032   3.4332   6.7853   6.8174  10.1251  10.1613
    10.5188  10.5562

          k =-0.1000-0.5000 0.3000 (  1560 PWs)   bands (ev):

    -0.0976  -0.0811   3.4193   3.4330   6.7813   6.8015  10.1506  10.1692
    10.5125  10.5252

          k =-0.1000 0.5000-0.3000 (  1560 PWs)   bands (ev):

    -0.0976  -0.0811   3.4191   3.4328   6.7815   6.8017  10.1607  10.1742
    10.5016  10.5216

          k = 0.3000-0.5000 0.1000 (  1560 PWs)   bands (ev):

    -0.0954  -0.0797   3.4099   3.4270   6.7927   6.8080  10.1443  10.1767
    10.5127  10.5298

          k = 0.3000 0.5000-0.1000 (  1560 PWs)   bands (ev):

    -0.0955  -0.0798   3.4101   3.4272   6.7926   6.8077  10.1323  10.1724
    10.5149  10.5446

          k =-0.5000 0.1000 0.3000 (  1560 PWs)   bands (ev):

    -0.1037  -0.0744   3.4101   3.4403   6.7774   6.8092  10.1203  10.1558
    10.5232  10.5540

          k = 0.5000-0.1000 0.3000 (  1560 PWs)   bands (ev):

    -0.1037  -0.0744   3.4102   3.4404   6.7759   6.8076  10.1411  10.1784
    10.5069  10.5340

          k =-0.5000 0.1000 0.5000 (  1548 PWs)   bands (ev):

     1.1843   1.2203   1.4378   1.4787   7.9875   8.0307   8.2687   8.3173
    11.7185  11.7491

          k =-0.5000 0.5000 0.1000 (  1548 PWs)   bands (ev):

     1.2600   1.2928   1.3581   1.3995   8.0667   8.1108   8.1945   8.2472
    11.8146  11.8310

          k =-0.3000-0.3000 0.3000 (  1556 PWs)   bands (ev):

    -0.8014   2.6498   2.7299   2.7951   6.1121   6.1809   6.2684   9.5772
    13.0102  13.0975

          k =-0.3000 0.3000-0.3000 (  1556 PWs)   bands (ev):

    -0.8015   2.6696   2.7271   2.7773   6.1284   6.1891   6.2442   9.5782
    13.0333  13.0967

          k = 0.3000-0.3000-0.3000 (  1556 PWs)   bands (ev):

    -0.8015   2.6613   2.7248   2.7891   6.1180   6.1868   6.2555   9.5737
    13.0252  13.0960

          k =-0.3000 0.3000 0.5000 (  1546 PWs)   bands (ev):

     0.4985   0.7503   3.9172   3.9611   4.2843   4.3265   7.4158   7.6843
    14.1385  14.1772

          k =-0.5000-0.3000 0.3000 (  1546 PWs)   bands (ev):

     0.6051   0.6343   3.9856   3.9921   4.2502   4.2599   7.5401   7.5723
    14.1792  14.1859

          k = 0.5000-0.3000-0.3000 (  1546 PWs)   bands (ev):

     0.6051   0.6344   3.9766   3.9885   4.2559   4.2689   7.5378   7.5697
    14.1797  14.1838

          k =-0.3000-0.5000 0.3000 (  1546 PWs)   bands (ev):

     0.6112   0.6276   3.9871   4.0006   4.2439   4.2571   7.5475   7.5632
    14.1735  14.1979

          k =-0.3000 0.5000-0.3000 (  1546 PWs)   bands (ev):

     0.6113   0.6277   3.9825   3.9973   4.2484   4.2606   7.5480   7.5637
    14.1678  14.1928

          k =-0.5000 0.3000 0.5000 (  1564 PWs)   bands (ev):

     1.8855   1.9214   2.1396   2.1803   5.3572   5.3946   5.6191   5.6617
    15.4995  15.5362

          k =-0.5000 0.5000 0.3000 (  1564 PWs)   bands (ev):

     1.9602   1.9927   2.0576   2.0989   5.4424   5.4767   5.5440   5.5872
    15.5881  15.6160

     the Fermi energy is     8.0587 ev

!    total energy              =    -157.99772857 Ry
     Harris-Foulkes estimate   =    -157.99772908 Ry
     estimated scf accuracy    <       0.00000072 Ry

     total all-electron energy =     -1942.568856 Ry

     The total energy is the sum of the following terms:

     one-electron contribution =      12.67564619 Ry
     hartree contribution      =       0.02985324 Ry
     xc contribution           =     -10.37052696 Ry
     ewald contribution        =     -21.62078795 Ry
     one-center paw contrib.   =    -138.71055322 Ry
     smearing contrib. (-TS)   =      -0.00135988 Ry

     convergence has been achieved in   8 iterations

     Forces acting on atoms (Ry/au):

     atom    1 type  1   force =     0.00119669    0.00005492    0.00884499
     atom    2 type  2   force =    -0.00376377    0.00686902    0.00883374
     atom    3 type  3   force =     0.00168451   -0.00077386   -0.01063073
     atom    4 type  4   force =     0.00088257   -0.00615008   -0.00704801

     Total force =     0.020586     Total SCF correction =     0.000625


     entering subroutine stress ...

          total   stress  (Ry/bohr**3)                   (kbar)     P=    3.54
   0.00002134  -0.00000452  -0.00000698          3.14     -0.67     -1.03
  -0.00000452   0.00004446   0.00001720         -0.67      6.54      2.53
  -0.00000698   0.00001720   0.00000634         -1.03      2.53      0.93


     Writing output data file template.save

     init_run     :      1.28s CPU      1.30s WALL (       1 calls)
     electrons    :     24.73s CPU     25.20s WALL (       1 calls)
     forces       :      0.16s CPU      0.16s WALL (       1 calls)
     stress       :      0.55s CPU      0.55s WALL (       1 calls)

     Called by init_run:
     wfcinit      :      0.76s CPU      0.77s WALL (       1 calls)
     potinit      :      0.10s CPU      0.10s WALL (       1 calls)

     Called by electrons:
     c_bands      :     20.04s CPU     20.43s WALL (       9 calls)
     sum_band     :      3.42s CPU      3.49s WALL (       9 calls)
     v_of_rho     :      0.15s CPU      0.16s WALL (       9 calls)
     newd         :      0.18s CPU      0.17s WALL (       9 calls)
     PAW_pot      :      0.89s CPU      0.90s WALL (       9 calls)
     mix_rho      :      0.10s CPU      0.11s WALL (       9 calls)

     Called by c_bands:
     init_us_2    :      0.44s CPU      0.42s WALL (    1323 calls)
     cegterg      :     19.55s CPU     19.89s WALL (     567 calls)

     Called by sum_band:
     sum_band:bec :      0.00s CPU      0.01s WALL (     567 calls)
     addusdens    :      0.21s CPU      0.23s WALL (       9 calls)

     Called by *egterg:
     h_psi        :     17.69s CPU     17.98s WALL (    2135 calls)
     s_psi        :      0.34s CPU      0.34s WALL (    2135 calls)
     g_psi        :      0.04s CPU      0.05s WALL (    1505 calls)
     cdiaghg      :      0.76s CPU      0.75s WALL (    2009 calls)

     Called by h_psi:
     h_psi:pot    :     17.66s CPU     17.93s WALL (    2135 calls)
     h_psi:calbec :      0.53s CPU      0.50s WALL (    2135 calls)
     vloc_psi     :     16.78s CPU     17.05s WALL (    2135 calls)
     add_vuspsi   :      0.34s CPU      0.37s WALL (    2135 calls)

     General routines
     calbec       :      0.81s CPU      0.75s WALL (    3017 calls)
     fft          :      0.15s CPU      0.15s WALL (     169 calls)
     ffts         :      0.08s CPU      0.07s WALL (     113 calls)
     fftw         :     18.64s CPU     19.01s WALL (   37698 calls)
     interpolate  :      0.03s CPU      0.03s WALL (      18 calls)
     davcio       :      0.00s CPU      0.00s WALL (      63 calls)

     Parallel routines
     fft_scatter  :      4.05s CPU      4.24s WALL (   37980 calls)

     PWSCF        :    27.84s CPU        28.45s WALL


   This run was terminated on:  15:55:56   9Jun2017            

=------------------------------------------------------------------------------=
   JOB DONE.
=------------------------------------------------------------------------------=
