
     Program PWSCF v.6.0 (svn rev. 13079) starts on  9Jun2017 at 15:56:49 

     This program is part of the open-source Quantum ESPRESSO suite
     for quantum simulation of materials; please cite
         "P. Giannozzi et al., J. Phys.:Condens. Matter 21 395502 (2009);
          URL http://www.quantum-espresso.org", 
     in publications or presentations arising from this work. More details at
     http://www.quantum-espresso.org/quote

     Parallel version (MPI), running on     4 processors
     R & G space division:  proc/nbgrp/npool/nimage =       4
     Waiting for input...
     Reading input from standard input
Warning: card &IONS ignored
Warning: card ION_DYNAMICS='BFGS', ignored
Warning: card / ignored
Warning: card &CELL ignored
Warning: card CELL_DYNAMICS='BFGS', ignored
Warning: card PRESS = 0.0, ignored
Warning: card CELL_FACTOR = 2.0, ignored
Warning: card / ignored

     Current dimensions of program PWSCF are:
     Max number of different atomic species (ntypx) = 10
     Max number of k-points (npk) =  40000
     Max angular momentum in pseudopotentials (lmaxx) =  3
               file Al.pbe-nl-kjpaw_psl.1.0.0.UPF: wavefunction(s)  3S 3P renormalized
               file Al.pbe-nl-kjpaw_psl.1.0.0.UPF: wavefunction(s)  3S 3P renormalized
               file Al.pbe-nl-kjpaw_psl.1.0.0.UPF: wavefunction(s)  3S 3P renormalized
               file Al.pbe-nl-kjpaw_psl.1.0.0.UPF: wavefunction(s)  3S 3P renormalized

     Subspace diagonalization in iterative solution of the eigenvalue problem:
     a serial algorithm will be used


     Parallelization info
     --------------------
     sticks:   dense  smooth     PW     G-vecs:    dense   smooth      PW
     Min         232     164     49                 5310     3132     527
     Max         234     165     50                 5313     3135     528
     Sum         933     657    197                21247    12533    2109



     bravais-lattice index     =            0
     lattice parameter (alat)  =       7.6300  a.u.
     unit-cell volume          =     444.1949 (a.u.)^3
     number of atoms/cell      =            4
     number of atomic types    =            4
     number of electrons       =        12.00
     number of Kohn-Sham states=           10
     kinetic-energy cutoff     =      35.0000  Ry
     charge density cutoff     =     200.0000  Ry
     convergence threshold     =      1.0E-06
     mixing beta               =       0.3000
     number of iterations used =           10  local-TF  mixing
     Exchange-correlation      =  SLA  PW   PBX  PBC ( 1  4  3  4 0 0)

     celldm(1)=   7.630000  celldm(2)=   0.000000  celldm(3)=   0.000000
     celldm(4)=   0.000000  celldm(5)=   0.000000  celldm(6)=   0.000000

     crystal axes: (cart. coord. in units of alat)
               a(1) = (   1.000000   0.000000   0.000000 )  
               a(2) = (   0.000000   1.000000   0.000000 )  
               a(3) = (   0.000000   0.000000   1.000000 )  

     reciprocal axes: (cart. coord. in units 2 pi/alat)
               b(1) = (  1.000000  0.000000  0.000000 )  
               b(2) = (  0.000000  1.000000  0.000000 )  
               b(3) = (  0.000000  0.000000  1.000000 )  


     PseudoPot. # 1 for Al read from file:
     /home/ben/espresso/pp/Al.pbe-nl-kjpaw_psl.1.0.0.UPF
     MD5 check sum: 339dbea23cf3ab9a065ad45c0f9085d7
     Pseudo is Projector augmented-wave + core cor, Zval =  3.0
     Generated using "atomic" code by A. Dal Corso  v.5.1
     Shape of augmentation charge: PSQ
     Using radial grid of 1135 points,  4 beta functions with: 
                l(1) =   0
                l(2) =   0
                l(3) =   1
                l(4) =   1
     Q(r) pseudized with 0 coefficients 


     PseudoPot. # 2 for Al read from file:
     /home/ben/espresso/pp/Al.pbe-nl-kjpaw_psl.1.0.0.UPF
     MD5 check sum: 339dbea23cf3ab9a065ad45c0f9085d7
     Pseudo is Projector augmented-wave + core cor, Zval =  3.0
     Generated using "atomic" code by A. Dal Corso  v.5.1
     Shape of augmentation charge: PSQ
     Using radial grid of 1135 points,  4 beta functions with: 
                l(1) =   0
                l(2) =   0
                l(3) =   1
                l(4) =   1
     Q(r) pseudized with 0 coefficients 


     PseudoPot. # 3 for Al read from file:
     /home/ben/espresso/pp/Al.pbe-nl-kjpaw_psl.1.0.0.UPF
     MD5 check sum: 339dbea23cf3ab9a065ad45c0f9085d7
     Pseudo is Projector augmented-wave + core cor, Zval =  3.0
     Generated using "atomic" code by A. Dal Corso  v.5.1
     Shape of augmentation charge: PSQ
     Using radial grid of 1135 points,  4 beta functions with: 
                l(1) =   0
                l(2) =   0
                l(3) =   1
                l(4) =   1
     Q(r) pseudized with 0 coefficients 


     PseudoPot. # 4 for Al read from file:
     /home/ben/espresso/pp/Al.pbe-nl-kjpaw_psl.1.0.0.UPF
     MD5 check sum: 339dbea23cf3ab9a065ad45c0f9085d7
     Pseudo is Projector augmented-wave + core cor, Zval =  3.0
     Generated using "atomic" code by A. Dal Corso  v.5.1
     Shape of augmentation charge: PSQ
     Using radial grid of 1135 points,  4 beta functions with: 
                l(1) =   0
                l(2) =   0
                l(3) =   1
                l(4) =   1
     Q(r) pseudized with 0 coefficients 


     atomic species   valence    mass     pseudopotential
        Al1            3.00    26.98200     Al( 1.00)
        Al2            3.00    26.98200     Al( 1.00)
        Al3            3.00    26.98200     Al( 1.00)
        Al4            3.00    26.98200     Al( 1.00)

     No symmetry found



   Cartesian axes

     site n.     atom                  positions (alat units)
         1           Al1 tau(   1) = (   0.9992129   0.0002290   0.0016388  )
         2           Al2 tau(   2) = (   0.5019174   0.4954237   0.0016939  )
         3           Al3 tau(   3) = (   0.4977630   0.0007345   0.5071178  )
         4           Al4 tau(   4) = (   0.9995182   0.5052682   0.5044247  )

     number of k points=    63  Marzari-Vanderbilt smearing, width (Ry)=  0.0200
                       cart. coord. in units 2pi/alat
        k(    1) = (   0.1000000   0.1000000   0.1000000), wk =   0.0320000
        k(    2) = (   0.1000000   0.1000000   0.3000000), wk =   0.0320000
        k(    3) = (   0.1000000   0.1000000  -0.5000000), wk =   0.0320000
        k(    4) = (   0.1000000   0.3000000   0.3000000), wk =   0.0320000
        k(    5) = (   0.1000000   0.3000000  -0.5000000), wk =   0.0320000
        k(    6) = (   0.1000000  -0.5000000  -0.5000000), wk =   0.0320000
        k(    7) = (   0.3000000   0.3000000   0.3000000), wk =   0.0320000
        k(    8) = (   0.3000000   0.3000000  -0.5000000), wk =   0.0320000
        k(    9) = (   0.3000000  -0.5000000  -0.5000000), wk =   0.0320000
        k(   10) = (  -0.5000000  -0.5000000  -0.5000000), wk =   0.0160000
        k(   11) = (  -0.1000000  -0.1000000   0.1000000), wk =   0.0320000
        k(   12) = (  -0.1000000   0.1000000  -0.1000000), wk =   0.0320000
        k(   13) = (   0.1000000  -0.1000000  -0.1000000), wk =   0.0320000
        k(   14) = (  -0.1000000  -0.1000000   0.3000000), wk =   0.0320000
        k(   15) = (  -0.1000000   0.1000000  -0.3000000), wk =   0.0320000
        k(   16) = (   0.1000000  -0.1000000  -0.3000000), wk =   0.0320000
        k(   17) = (   0.3000000  -0.1000000   0.1000000), wk =   0.0320000
        k(   18) = (  -0.3000000  -0.1000000  -0.1000000), wk =   0.0320000
        k(   19) = (   0.3000000   0.1000000  -0.1000000), wk =   0.0320000
        k(   20) = (  -0.3000000   0.1000000   0.1000000), wk =   0.0320000
        k(   21) = (  -0.1000000   0.3000000   0.1000000), wk =   0.0320000
        k(   22) = (  -0.1000000  -0.3000000  -0.1000000), wk =   0.0320000
        k(   23) = (   0.1000000   0.3000000  -0.1000000), wk =   0.0320000
        k(   24) = (   0.1000000  -0.3000000   0.1000000), wk =   0.0320000
        k(   25) = (  -0.1000000   0.1000000   0.5000000), wk =   0.0320000
        k(   26) = (  -0.5000000  -0.1000000   0.1000000), wk =   0.0320000
        k(   27) = (   0.5000000  -0.1000000  -0.1000000), wk =   0.0320000
        k(   28) = (  -0.1000000  -0.5000000   0.1000000), wk =   0.0320000
        k(   29) = (  -0.1000000   0.5000000  -0.1000000), wk =   0.0320000
        k(   30) = (  -0.1000000  -0.3000000   0.3000000), wk =   0.0320000
        k(   31) = (  -0.1000000   0.3000000  -0.3000000), wk =   0.0320000
        k(   32) = (   0.1000000  -0.3000000  -0.3000000), wk =   0.0320000
        k(   33) = (   0.3000000   0.1000000  -0.3000000), wk =   0.0320000
        k(   34) = (  -0.3000000  -0.1000000  -0.3000000), wk =   0.0320000
        k(   35) = (   0.3000000  -0.1000000   0.3000000), wk =   0.0320000
        k(   36) = (  -0.3000000   0.1000000   0.3000000), wk =   0.0320000
        k(   37) = (   0.3000000  -0.3000000   0.1000000), wk =   0.0320000
        k(   38) = (  -0.3000000  -0.3000000  -0.1000000), wk =   0.0320000
        k(   39) = (   0.3000000   0.3000000  -0.1000000), wk =   0.0320000
        k(   40) = (  -0.3000000   0.3000000   0.1000000), wk =   0.0320000
        k(   41) = (  -0.1000000   0.3000000   0.5000000), wk =   0.0320000
        k(   42) = (   0.3000000   0.1000000   0.5000000), wk =   0.0320000
        k(   43) = (   0.3000000  -0.1000000  -0.5000000), wk =   0.0320000
        k(   44) = (  -0.5000000  -0.3000000   0.1000000), wk =   0.0320000
        k(   45) = (   0.5000000  -0.3000000  -0.1000000), wk =   0.0320000
        k(   46) = (  -0.1000000  -0.5000000   0.3000000), wk =   0.0320000
        k(   47) = (  -0.1000000   0.5000000  -0.3000000), wk =   0.0320000
        k(   48) = (   0.3000000  -0.5000000   0.1000000), wk =   0.0320000
        k(   49) = (   0.3000000   0.5000000  -0.1000000), wk =   0.0320000
        k(   50) = (  -0.5000000   0.1000000   0.3000000), wk =   0.0320000
        k(   51) = (   0.5000000  -0.1000000   0.3000000), wk =   0.0320000
        k(   52) = (  -0.5000000   0.1000000   0.5000000), wk =   0.0320000
        k(   53) = (  -0.5000000   0.5000000   0.1000000), wk =   0.0320000
        k(   54) = (  -0.3000000  -0.3000000   0.3000000), wk =   0.0320000
        k(   55) = (  -0.3000000   0.3000000  -0.3000000), wk =   0.0320000
        k(   56) = (   0.3000000  -0.3000000  -0.3000000), wk =   0.0320000
        k(   57) = (  -0.3000000   0.3000000   0.5000000), wk =   0.0320000
        k(   58) = (  -0.5000000  -0.3000000   0.3000000), wk =   0.0320000
        k(   59) = (   0.5000000  -0.3000000  -0.3000000), wk =   0.0320000
        k(   60) = (  -0.3000000  -0.5000000   0.3000000), wk =   0.0320000
        k(   61) = (  -0.3000000   0.5000000  -0.3000000), wk =   0.0320000
        k(   62) = (  -0.5000000   0.3000000   0.5000000), wk =   0.0320000
        k(   63) = (  -0.5000000   0.5000000   0.3000000), wk =   0.0320000

     Dense  grid:    21247 G-vectors     FFT dimensions: (  36,  36,  36)

     Smooth grid:    12533 G-vectors     FFT dimensions: (  30,  30,  30)

     Estimated max dynamical RAM per process >       9.70Mb

     Estimated total allocated dynamical RAM >      38.81Mb

     Initial potential from superposition of free atoms

     starting charge   11.99084, renormalised to   12.00000
     Starting wfc are   16 randomized atomic wfcs
     Checking if some PAW data can be deallocated... 

     total cpu time spent up to now is        2.3 secs

     per-process dynamical memory:    16.8 Mb

     Self-consistent Calculation

     iteration #  1     ecut=    35.00 Ry     beta=0.30
     Davidson diagonalization with overlap
     ethr =  1.00E-02,  avg # of iterations =  3.1

     Threshold (ethr) on eigenvalues was too large:
     Diagonalizing with lowered threshold

     Davidson diagonalization with overlap
     ethr =  1.96E-04,  avg # of iterations =  3.5

     total cpu time spent up to now is        5.9 secs

     total energy              =    -158.00332148 Ry
     Harris-Foulkes estimate   =    -158.00574318 Ry
     estimated scf accuracy    <       0.02287215 Ry

     iteration #  2     ecut=    35.00 Ry     beta=0.30
     Davidson diagonalization with overlap
     ethr =  1.91E-04,  avg # of iterations =  1.1

     total cpu time spent up to now is        7.2 secs

     total energy              =    -157.99892312 Ry
     Harris-Foulkes estimate   =    -158.00346783 Ry
     estimated scf accuracy    <       0.01420989 Ry

     iteration #  3     ecut=    35.00 Ry     beta=0.30
     Davidson diagonalization with overlap
     ethr =  1.18E-04,  avg # of iterations =  1.8

     total cpu time spent up to now is       11.2 secs

     total energy              =    -157.99921781 Ry
     Harris-Foulkes estimate   =    -157.99927368 Ry
     estimated scf accuracy    <       0.00002873 Ry

     iteration #  4     ecut=    35.00 Ry     beta=0.30
     Davidson diagonalization with overlap
     c_bands:  1 eigenvalues not converged
     ethr =  2.39E-07,  avg # of iterations =  7.1

     total cpu time spent up to now is       20.0 secs

     total energy              =    -157.99927777 Ry
     Harris-Foulkes estimate   =    -157.99929550 Ry
     estimated scf accuracy    <       0.00001826 Ry

     iteration #  5     ecut=    35.00 Ry     beta=0.30
     Davidson diagonalization with overlap
     ethr =  1.52E-07,  avg # of iterations =  1.2

     total cpu time spent up to now is       22.5 secs

     total energy              =    -157.99926742 Ry
     Harris-Foulkes estimate   =    -157.99927844 Ry
     estimated scf accuracy    <       0.00000694 Ry

     iteration #  6     ecut=    35.00 Ry     beta=0.30
     Davidson diagonalization with overlap
     ethr =  5.79E-08,  avg # of iterations =  2.0

     total cpu time spent up to now is       24.3 secs

     End of self-consistent calculation

          k = 0.1000 0.1000 0.1000 (  1542 PWs)   bands (ev):

    -2.9542   4.0317   4.0607   4.0887   7.7339   7.7665   7.7981  10.7537
    10.7886  10.8255

          k = 0.1000 0.1000 0.3000 (  1532 PWs)   bands (ev):

    -2.2310   1.3295   4.7228   4.7637   8.0158   8.0889   8.5597   8.5674
    11.3808  11.8161

          k = 0.1000 0.1000-0.5000 (  1556 PWs)   bands (ev):

    -0.8366  -0.7528   5.9701   5.9850   6.2343   6.2493   9.5301   9.5342
    10.2074  10.2115

          k = 0.1000 0.3000 0.3000 (  1565 PWs)   bands (ev):

    -1.5112   2.0124   2.0494   5.3263   5.5972   8.7938   8.8451   9.1755
    12.1550  12.1859

          k = 0.1000 0.3000-0.5000 (  1560 PWs)   bands (ev):

    -0.1240  -0.0402   3.3808   3.4660   6.7553   6.8463  10.1202  10.2157
    10.4765  10.5551

          k = 0.1000-0.5000-0.5000 (  1548 PWs)   bands (ev):

     1.2831   1.2932   1.3732   1.3811   8.0979   8.1109   8.1997   8.2100
    11.8143  11.8224

          k = 0.3000 0.3000 0.3000 (  1556 PWs)   bands (ev):

    -0.7950   2.6983   2.7292   2.7590   6.1555   6.1879   6.2209   9.5750
    13.0676  13.1020

          k = 0.3000 0.3000-0.5000 (  1546 PWs)   bands (ev):

     0.5853   0.6692   3.9815   3.9956   4.2537   4.2676   7.5071   7.5966
    14.1881  14.1979

          k = 0.3000-0.5000-0.5000 (  1564 PWs)   bands (ev):

     1.9852   1.9952   2.0754   2.0832   5.4580   5.4685   5.5513   5.5595
    15.6062  15.6167

          k =-0.5000-0.5000-0.5000 (  1568 PWs)   bands (ev):

     3.3047   3.3111   3.3195   3.3234   3.5497   3.5538   3.5607   3.5685
    19.2791  19.3011

          k =-0.1000-0.1000 0.1000 (  1542 PWs)   bands (ev):

    -2.9542   4.0375   4.0606   4.0826   7.7407   7.7666   7.7915  10.7612
    10.7884  10.8180

          k =-0.1000 0.1000-0.1000 (  1542 PWs)   bands (ev):

    -2.9542   4.0434   4.0605   4.0767   7.7475   7.7665   7.7850  10.7681
    10.7893  10.8101

          k = 0.1000-0.1000-0.1000 (  1542 PWs)   bands (ev):

    -2.9542   4.0405   4.0603   4.0800   7.7438   7.7664   7.7884  10.7646
    10.7888  10.8144

          k =-0.1000-0.1000 0.3000 (  1532 PWs)   bands (ev):

    -2.2310   1.3295   4.7227   4.7636   8.0166   8.0898   8.5590   8.5667
    11.3805  11.8236

          k =-0.1000 0.1000-0.3000 (  1532 PWs)   bands (ev):

    -2.2310   1.3295   4.7337   4.7524   8.0363   8.0697   8.5613   8.5648
    11.3806  11.8211

          k = 0.1000-0.1000-0.3000 (  1532 PWs)   bands (ev):

    -2.2310   1.3295   4.7338   4.7525   8.0348   8.0682   8.5627   8.5662
    11.3802  11.8183

          k = 0.3000-0.1000 0.1000 (  1532 PWs)   bands (ev):

    -2.2308   1.3287   4.7342   4.7532   8.0353   8.0693   8.5616   8.5652
    11.3822  11.8144

          k =-0.3000-0.1000-0.1000 (  1532 PWs)   bands (ev):

    -2.2308   1.3286   4.7264   4.7613   8.0212   8.0834   8.5599   8.5664
    11.3805  11.8031

          k = 0.3000 0.1000-0.1000 (  1532 PWs)   bands (ev):

    -2.2308   1.3286   4.7342   4.7533   8.0352   8.0692   8.5615   8.5651
    11.3825  11.8176

          k =-0.3000 0.1000 0.1000 (  1532 PWs)   bands (ev):

    -2.2308   1.3287   4.7264   4.7612   8.0212   8.0834   8.5600   8.5665
    11.3796  11.8207

          k =-0.1000 0.3000 0.1000 (  1532 PWs)   bands (ev):

    -2.2308   1.3286   4.7411   4.7465   8.0475   8.0569   8.5625   8.5639
    11.3811  11.7972

          k =-0.1000-0.3000-0.1000 (  1532 PWs)   bands (ev):

    -2.2308   1.3286   4.7337   4.7540   8.0341   8.0705   8.5611   8.5648
    11.3826  11.7934

          k = 0.1000 0.3000-0.1000 (  1532 PWs)   bands (ev):

    -2.2308   1.3286   4.7411   4.7464   8.0478   8.0572   8.5626   8.5637
    11.3817  11.7804

          k = 0.1000-0.3000 0.1000 (  1532 PWs)   bands (ev):

    -2.2308   1.3287   4.7336   4.7539   8.0346   8.0711   8.5610   8.5648
    11.3819  11.7858

          k =-0.1000 0.1000 0.5000 (  1556 PWs)   bands (ev):

    -0.8366  -0.7528   5.9750   5.9820   6.2372   6.2441   9.5318   9.5338
    10.2080  10.2098

          k =-0.5000-0.1000 0.1000 (  1556 PWs)   bands (ev):

    -0.7998  -0.7902   5.9858   5.9867   6.2323   6.2338   9.5343   9.5346
    10.2062  10.2074

          k = 0.5000-0.1000-0.1000 (  1556 PWs)   bands (ev):

    -0.7998  -0.7902   5.9849   5.9865   6.2328   6.2345   9.5342   9.5345
    10.2061  10.2066

          k =-0.1000-0.5000 0.1000 (  1556 PWs)   bands (ev):

    -0.7966  -0.7935   5.9862   5.9877   6.2316   6.2330   9.5334   9.5353
    10.2061  10.2074

          k =-0.1000 0.5000-0.1000 (  1556 PWs)   bands (ev):

    -0.7966  -0.7935   5.9857   5.9873   6.2321   6.2335   9.5331   9.5351
    10.2065  10.2077

          k =-0.1000-0.3000 0.3000 (  1565 PWs)   bands (ev):

    -1.5112   2.0208   2.0410   5.3266   5.5972   8.8049   8.8329   9.1764
    12.1662  12.1941

          k =-0.1000 0.3000-0.3000 (  1565 PWs)   bands (ev):

    -1.5113   2.0208   2.0410   5.3264   5.5973   8.8053   8.8333   9.1756
    12.1910  12.2305

          k = 0.1000-0.3000-0.3000 (  1565 PWs)   bands (ev):

    -1.5112   2.0125   2.0495   5.3262   5.5973   8.7932   8.8445   9.1767
    12.1577  12.1822

          k = 0.3000 0.1000-0.3000 (  1565 PWs)   bands (ev):

    -1.5112   2.0280   2.0338   5.3263   5.5973   8.8142   8.8225   9.1778
    12.1613  12.2105

          k =-0.3000-0.1000-0.3000 (  1565 PWs)   bands (ev):

    -1.5112   2.0201   2.0417   5.3267   5.5971   8.8021   8.8322   9.1802
    12.1612  12.1937

          k = 0.3000-0.1000 0.3000 (  1565 PWs)   bands (ev):

    -1.5112   2.0201   2.0417   5.3262   5.5974   8.8031   8.8332   9.1782
    12.1639  12.1932

          k =-0.3000 0.1000 0.3000 (  1565 PWs)   bands (ev):

    -1.5112   2.0280   2.0338   5.3265   5.5972   8.8125   8.8214   9.1806
    12.1607  12.2090

          k = 0.3000-0.3000 0.1000 (  1565 PWs)   bands (ev):

    -1.5111   2.0206   2.0405   5.3265   5.5972   8.8060   8.8336   9.1761
    12.1921  12.2328

          k =-0.3000-0.3000-0.1000 (  1565 PWs)   bands (ev):

    -1.5110   2.0089   2.0523   5.3267   5.5970   8.7896   8.8499   9.1757
    12.1594  12.1779

          k = 0.3000 0.3000-0.1000 (  1565 PWs)   bands (ev):

    -1.5110   2.0089   2.0524   5.3264   5.5972   8.7896   8.8499   9.1760
    12.1619  12.1743

          k =-0.3000 0.3000 0.1000 (  1565 PWs)   bands (ev):

    -1.5111   2.0206   2.0405   5.3268   5.5970   8.8058   8.8334   9.1755
    12.1642  12.1963

          k =-0.1000 0.3000 0.5000 (  1560 PWs)   bands (ev):

    -0.1240  -0.0402   3.3809   3.4661   6.7552   6.8461  10.1199  10.2153
    10.4771  10.5555

          k = 0.3000 0.1000 0.5000 (  1560 PWs)   bands (ev):

    -0.1239  -0.0401   3.3808   3.4660   6.7554   6.8463  10.1189  10.2145
    10.4776  10.5564

          k = 0.3000-0.1000-0.5000 (  1560 PWs)   bands (ev):

    -0.1239  -0.0401   3.3808   3.4660   6.7552   6.8462  10.1187  10.2143
    10.4780  10.5568

          k =-0.5000-0.3000 0.1000 (  1560 PWs)   bands (ev):

    -0.0872  -0.0776   3.4183   3.4280   6.7957   6.8062  10.1635  10.1745
    10.5109  10.5199

          k = 0.5000-0.3000-0.1000 (  1560 PWs)   bands (ev):

    -0.0872  -0.0776   3.4182   3.4280   6.7959   6.8064  10.1605  10.1716
    10.5133  10.5230

          k =-0.1000-0.5000 0.3000 (  1560 PWs)   bands (ev):

    -0.0842  -0.0810   3.4225   3.4255   6.7982   6.8018  10.1662  10.1699
    10.5145  10.5173

          k =-0.1000 0.5000-0.3000 (  1560 PWs)   bands (ev):

    -0.0842  -0.0810   3.4225   3.4255   6.7982   6.8018  10.1672  10.1706
    10.5134  10.5167

          k = 0.3000-0.5000 0.1000 (  1560 PWs)   bands (ev):

    -0.0840  -0.0809   3.4215   3.4248   6.7994   6.8026  10.1657  10.1704
    10.5146  10.5178

          k = 0.3000 0.5000-0.1000 (  1560 PWs)   bands (ev):

    -0.0840  -0.0809   3.4216   3.4248   6.7993   6.8026  10.1643  10.1698
    10.5151  10.5194

          k =-0.5000 0.1000 0.3000 (  1560 PWs)   bands (ev):

    -0.0874  -0.0778   3.4190   3.4288   6.7950   6.8054  10.1599  10.1710
    10.5137  10.5229

          k = 0.5000-0.1000 0.3000 (  1560 PWs)   bands (ev):

    -0.0874  -0.0778   3.4190   3.4288   6.7948   6.8053  10.1624  10.1736
    10.5116  10.5206

          k =-0.5000 0.1000 0.5000 (  1548 PWs)   bands (ev):

     1.2839   1.2960   1.3687   1.3819   8.1000   8.1145   8.1940   8.2097
    11.8144  11.8240

          k =-0.5000 0.5000 0.1000 (  1548 PWs)   bands (ev):

     1.3097   1.3214   1.3427   1.3555   8.1254   8.1409   8.1685   8.1850
    11.8491  11.8533

          k =-0.3000-0.3000 0.3000 (  1556 PWs)   bands (ev):

    -0.7950   2.7045   2.7294   2.7525   6.1626   6.1875   6.2143   9.5753
    13.0744  13.1018

          k =-0.3000 0.3000-0.3000 (  1556 PWs)   bands (ev):

    -0.7950   2.7109   2.7290   2.7464   6.1689   6.1883   6.2072   9.5754
    13.0835  13.1046

          k = 0.3000-0.3000-0.3000 (  1556 PWs)   bands (ev):

    -0.7950   2.7077   2.7288   2.7499   6.1654   6.1881   6.2108   9.5749
    13.0781  13.1016

          k =-0.3000 0.3000 0.5000 (  1546 PWs)   bands (ev):

     0.5852   0.6692   3.9864   3.9930   4.2562   4.2626   7.5071   7.5967
    14.1920  14.1967

          k =-0.5000-0.3000 0.3000 (  1546 PWs)   bands (ev):

     0.6219   0.6315   3.9962   3.9969   4.2518   4.2532   7.5474   7.5578
    14.1971  14.1977

          k = 0.5000-0.3000-0.3000 (  1546 PWs)   bands (ev):

     0.6219   0.6315   3.9951   3.9965   4.2526   4.2542   7.5472   7.5575
    14.1970  14.1976

          k =-0.3000-0.5000 0.3000 (  1546 PWs)   bands (ev):

     0.6251   0.6282   3.9964   3.9978   4.2514   4.2526   7.5509   7.5541
    14.6047  14.6066

          k =-0.3000 0.5000-0.3000 (  1546 PWs)   bands (ev):

     0.6251   0.6282   3.9959   3.9974   4.2519   4.2531   7.5509   7.5542
    14.1958  14.1985

          k =-0.5000 0.3000 0.5000 (  1564 PWs)   bands (ev):

     1.9860   1.9980   2.0709   2.0840   5.4590   5.4715   5.5466   5.5603
    15.6107  15.6241

          k =-0.5000 0.5000 0.3000 (  1564 PWs)   bands (ev):

     2.0117   2.0234   2.0445   2.0573   5.4863   5.4985   5.5206   5.5340
    15.6500  15.6691

     the Fermi energy is     8.0734 ev

!    total energy              =    -157.99926896 Ry
     Harris-Foulkes estimate   =    -157.99926907 Ry
     estimated scf accuracy    <       0.00000016 Ry

     total all-electron energy =     -1942.570397 Ry

     The total energy is the sum of the following terms:

     one-electron contribution =      12.68608802 Ry
     hartree contribution      =       0.02450824 Ry
     xc contribution           =     -10.36804219 Ry
     ewald contribution        =     -21.63110833 Ry
     one-center paw contrib.   =    -138.70896264 Ry
     smearing contrib. (-TS)   =      -0.00175205 Ry

     convergence has been achieved in   6 iterations

     Forces acting on atoms (Ry/au):

     atom    1 type  1   force =     0.00039712   -0.00000597    0.00282319
     atom    2 type  2   force =    -0.00120640    0.00213121    0.00280093
     atom    3 type  3   force =     0.00052879   -0.00017930   -0.00338715
     atom    4 type  4   force =     0.00028049   -0.00194594   -0.00223697

     Total force =     0.006529     Total SCF correction =     0.000057


     entering subroutine stress ...

          total   stress  (Ry/bohr**3)                   (kbar)     P=    1.11
   0.00000728  -0.00000050  -0.00000077          1.07     -0.07     -0.11
  -0.00000050   0.00000992   0.00000194         -0.07      1.46      0.29
  -0.00000077   0.00000194   0.00000535         -0.11      0.29      0.79


     Writing output data file template.save

     init_run     :      1.32s CPU      1.34s WALL (       1 calls)
     electrons    :     21.60s CPU     21.96s WALL (       1 calls)
     forces       :      0.16s CPU      0.16s WALL (       1 calls)
     stress       :      0.48s CPU      0.48s WALL (       1 calls)

     Called by init_run:
     wfcinit      :      0.80s CPU      0.81s WALL (       1 calls)
     potinit      :      0.10s CPU      0.11s WALL (       1 calls)

     Called by electrons:
     c_bands      :     17.62s CPU     17.91s WALL (       7 calls)
     sum_band     :      2.94s CPU      3.00s WALL (       7 calls)
     v_of_rho     :      0.14s CPU      0.14s WALL (       7 calls)
     newd         :      0.14s CPU      0.14s WALL (       7 calls)
     PAW_pot      :      0.75s CPU      0.76s WALL (       7 calls)
     mix_rho      :      0.08s CPU      0.08s WALL (       7 calls)

     Called by c_bands:
     init_us_2    :      0.37s CPU      0.35s WALL (    1071 calls)
     cegterg      :     17.20s CPU     17.47s WALL (     441 calls)

     Called by sum_band:
     sum_band:bec :      0.00s CPU      0.01s WALL (     441 calls)
     addusdens    :      0.18s CPU      0.19s WALL (       7 calls)

     Called by *egterg:
     h_psi        :     15.54s CPU     15.73s WALL (    1749 calls)
     s_psi        :      0.23s CPU      0.29s WALL (    1749 calls)
     g_psi        :      0.03s CPU      0.04s WALL (    1245 calls)
     cdiaghg      :      0.68s CPU      0.75s WALL (    1623 calls)

     Called by h_psi:
     h_psi:pot    :     15.52s CPU     15.69s WALL (    1749 calls)
     h_psi:calbec :      0.42s CPU      0.43s WALL (    1749 calls)
     vloc_psi     :     14.81s CPU     14.92s WALL (    1749 calls)
     add_vuspsi   :      0.28s CPU      0.32s WALL (    1749 calls)

     General routines
     calbec       :      0.59s CPU      0.61s WALL (    2505 calls)
     fft          :      0.13s CPU      0.14s WALL (     137 calls)
     ffts         :      0.07s CPU      0.06s WALL (      79 calls)
     fftw         :     16.41s CPU     16.62s WALL (   30276 calls)
     interpolate  :      0.02s CPU      0.02s WALL (      14 calls)
     davcio       :      0.00s CPU      0.00s WALL (      63 calls)

     Parallel routines
     fft_scatter  :      3.63s CPU      3.60s WALL (   30492 calls)

     PWSCF        :    24.63s CPU        25.13s WALL


   This run was terminated on:  15:57:14   9Jun2017            

=------------------------------------------------------------------------------=
   JOB DONE.
=------------------------------------------------------------------------------=
