
     Program PWSCF v.6.0 (svn rev. 13079) starts on  9Jun2017 at 15:50:21 

     This program is part of the open-source Quantum ESPRESSO suite
     for quantum simulation of materials; please cite
         "P. Giannozzi et al., J. Phys.:Condens. Matter 21 395502 (2009);
          URL http://www.quantum-espresso.org", 
     in publications or presentations arising from this work. More details at
     http://www.quantum-espresso.org/quote

     Parallel version (MPI), running on     4 processors
     R & G space division:  proc/nbgrp/npool/nimage =       4
     Waiting for input...
     Reading input from standard input
Warning: card &IONS ignored
Warning: card ION_DYNAMICS='BFGS', ignored
Warning: card / ignored
Warning: card &CELL ignored
Warning: card CELL_DYNAMICS='BFGS', ignored
Warning: card PRESS = 0.0, ignored
Warning: card CELL_FACTOR = 2.0, ignored
Warning: card / ignored

     Current dimensions of program PWSCF are:
     Max number of different atomic species (ntypx) = 10
     Max number of k-points (npk) =  40000
     Max angular momentum in pseudopotentials (lmaxx) =  3
               file Al.pbe-nl-kjpaw_psl.1.0.0.UPF: wavefunction(s)  3S 3P renormalized
               file Al.pbe-nl-kjpaw_psl.1.0.0.UPF: wavefunction(s)  3S 3P renormalized
               file Al.pbe-nl-kjpaw_psl.1.0.0.UPF: wavefunction(s)  3S 3P renormalized
               file Al.pbe-nl-kjpaw_psl.1.0.0.UPF: wavefunction(s)  3S 3P renormalized

     Subspace diagonalization in iterative solution of the eigenvalue problem:
     a serial algorithm will be used


     Parallelization info
     --------------------
     sticks:   dense  smooth     PW     G-vecs:    dense   smooth      PW
     Min         232     164     49                 5310     3132     527
     Max         234     165     50                 5313     3135     528
     Sum         933     657    197                21247    12533    2109



     bravais-lattice index     =            0
     lattice parameter (alat)  =       7.6300  a.u.
     unit-cell volume          =     444.1949 (a.u.)^3
     number of atoms/cell      =            4
     number of atomic types    =            4
     number of electrons       =        12.00
     number of Kohn-Sham states=           10
     kinetic-energy cutoff     =      35.0000  Ry
     charge density cutoff     =     200.0000  Ry
     convergence threshold     =      1.0E-06
     mixing beta               =       0.3000
     number of iterations used =           10  local-TF  mixing
     Exchange-correlation      =  SLA  PW   PBX  PBC ( 1  4  3  4 0 0)

     celldm(1)=   7.630000  celldm(2)=   0.000000  celldm(3)=   0.000000
     celldm(4)=   0.000000  celldm(5)=   0.000000  celldm(6)=   0.000000

     crystal axes: (cart. coord. in units of alat)
               a(1) = (   1.000000   0.000000   0.000000 )  
               a(2) = (   0.000000   1.000000   0.000000 )  
               a(3) = (   0.000000   0.000000   1.000000 )  

     reciprocal axes: (cart. coord. in units 2 pi/alat)
               b(1) = (  1.000000  0.000000  0.000000 )  
               b(2) = (  0.000000  1.000000  0.000000 )  
               b(3) = (  0.000000  0.000000  1.000000 )  


     PseudoPot. # 1 for Al read from file:
     /home/ben/espresso/pp/Al.pbe-nl-kjpaw_psl.1.0.0.UPF
     MD5 check sum: 339dbea23cf3ab9a065ad45c0f9085d7
     Pseudo is Projector augmented-wave + core cor, Zval =  3.0
     Generated using "atomic" code by A. Dal Corso  v.5.1
     Shape of augmentation charge: PSQ
     Using radial grid of 1135 points,  4 beta functions with: 
                l(1) =   0
                l(2) =   0
                l(3) =   1
                l(4) =   1
     Q(r) pseudized with 0 coefficients 


     PseudoPot. # 2 for Al read from file:
     /home/ben/espresso/pp/Al.pbe-nl-kjpaw_psl.1.0.0.UPF
     MD5 check sum: 339dbea23cf3ab9a065ad45c0f9085d7
     Pseudo is Projector augmented-wave + core cor, Zval =  3.0
     Generated using "atomic" code by A. Dal Corso  v.5.1
     Shape of augmentation charge: PSQ
     Using radial grid of 1135 points,  4 beta functions with: 
                l(1) =   0
                l(2) =   0
                l(3) =   1
                l(4) =   1
     Q(r) pseudized with 0 coefficients 


     PseudoPot. # 3 for Al read from file:
     /home/ben/espresso/pp/Al.pbe-nl-kjpaw_psl.1.0.0.UPF
     MD5 check sum: 339dbea23cf3ab9a065ad45c0f9085d7
     Pseudo is Projector augmented-wave + core cor, Zval =  3.0
     Generated using "atomic" code by A. Dal Corso  v.5.1
     Shape of augmentation charge: PSQ
     Using radial grid of 1135 points,  4 beta functions with: 
                l(1) =   0
                l(2) =   0
                l(3) =   1
                l(4) =   1
     Q(r) pseudized with 0 coefficients 


     PseudoPot. # 4 for Al read from file:
     /home/ben/espresso/pp/Al.pbe-nl-kjpaw_psl.1.0.0.UPF
     MD5 check sum: 339dbea23cf3ab9a065ad45c0f9085d7
     Pseudo is Projector augmented-wave + core cor, Zval =  3.0
     Generated using "atomic" code by A. Dal Corso  v.5.1
     Shape of augmentation charge: PSQ
     Using radial grid of 1135 points,  4 beta functions with: 
                l(1) =   0
                l(2) =   0
                l(3) =   1
                l(4) =   1
     Q(r) pseudized with 0 coefficients 


     atomic species   valence    mass     pseudopotential
        Al1            3.00    26.98200     Al( 1.00)
        Al2            3.00    26.98200     Al( 1.00)
        Al3            3.00    26.98200     Al( 1.00)
        Al4            3.00    26.98200     Al( 1.00)

     No symmetry found



   Cartesian axes

     site n.     atom                  positions (alat units)
         1           Al1 tau(   1) = (   0.9997571   0.0000707   0.0005057  )
         2           Al2 tau(   2) = (   0.5005916   0.4985879   0.0005227  )
         3           Al3 tau(   3) = (   0.4993097   0.0002267   0.5021963  )
         4           Al4 tau(   4) = (   0.9998513   0.5016256   0.5013653  )

     number of k points=    63  Marzari-Vanderbilt smearing, width (Ry)=  0.0200
                       cart. coord. in units 2pi/alat
        k(    1) = (   0.1000000   0.1000000   0.1000000), wk =   0.0320000
        k(    2) = (   0.1000000   0.1000000   0.3000000), wk =   0.0320000
        k(    3) = (   0.1000000   0.1000000  -0.5000000), wk =   0.0320000
        k(    4) = (   0.1000000   0.3000000   0.3000000), wk =   0.0320000
        k(    5) = (   0.1000000   0.3000000  -0.5000000), wk =   0.0320000
        k(    6) = (   0.1000000  -0.5000000  -0.5000000), wk =   0.0320000
        k(    7) = (   0.3000000   0.3000000   0.3000000), wk =   0.0320000
        k(    8) = (   0.3000000   0.3000000  -0.5000000), wk =   0.0320000
        k(    9) = (   0.3000000  -0.5000000  -0.5000000), wk =   0.0320000
        k(   10) = (  -0.5000000  -0.5000000  -0.5000000), wk =   0.0160000
        k(   11) = (  -0.1000000  -0.1000000   0.1000000), wk =   0.0320000
        k(   12) = (  -0.1000000   0.1000000  -0.1000000), wk =   0.0320000
        k(   13) = (   0.1000000  -0.1000000  -0.1000000), wk =   0.0320000
        k(   14) = (  -0.1000000  -0.1000000   0.3000000), wk =   0.0320000
        k(   15) = (  -0.1000000   0.1000000  -0.3000000), wk =   0.0320000
        k(   16) = (   0.1000000  -0.1000000  -0.3000000), wk =   0.0320000
        k(   17) = (   0.3000000  -0.1000000   0.1000000), wk =   0.0320000
        k(   18) = (  -0.3000000  -0.1000000  -0.1000000), wk =   0.0320000
        k(   19) = (   0.3000000   0.1000000  -0.1000000), wk =   0.0320000
        k(   20) = (  -0.3000000   0.1000000   0.1000000), wk =   0.0320000
        k(   21) = (  -0.1000000   0.3000000   0.1000000), wk =   0.0320000
        k(   22) = (  -0.1000000  -0.3000000  -0.1000000), wk =   0.0320000
        k(   23) = (   0.1000000   0.3000000  -0.1000000), wk =   0.0320000
        k(   24) = (   0.1000000  -0.3000000   0.1000000), wk =   0.0320000
        k(   25) = (  -0.1000000   0.1000000   0.5000000), wk =   0.0320000
        k(   26) = (  -0.5000000  -0.1000000   0.1000000), wk =   0.0320000
        k(   27) = (   0.5000000  -0.1000000  -0.1000000), wk =   0.0320000
        k(   28) = (  -0.1000000  -0.5000000   0.1000000), wk =   0.0320000
        k(   29) = (  -0.1000000   0.5000000  -0.1000000), wk =   0.0320000
        k(   30) = (  -0.1000000  -0.3000000   0.3000000), wk =   0.0320000
        k(   31) = (  -0.1000000   0.3000000  -0.3000000), wk =   0.0320000
        k(   32) = (   0.1000000  -0.3000000  -0.3000000), wk =   0.0320000
        k(   33) = (   0.3000000   0.1000000  -0.3000000), wk =   0.0320000
        k(   34) = (  -0.3000000  -0.1000000  -0.3000000), wk =   0.0320000
        k(   35) = (   0.3000000  -0.1000000   0.3000000), wk =   0.0320000
        k(   36) = (  -0.3000000   0.1000000   0.3000000), wk =   0.0320000
        k(   37) = (   0.3000000  -0.3000000   0.1000000), wk =   0.0320000
        k(   38) = (  -0.3000000  -0.3000000  -0.1000000), wk =   0.0320000
        k(   39) = (   0.3000000   0.3000000  -0.1000000), wk =   0.0320000
        k(   40) = (  -0.3000000   0.3000000   0.1000000), wk =   0.0320000
        k(   41) = (  -0.1000000   0.3000000   0.5000000), wk =   0.0320000
        k(   42) = (   0.3000000   0.1000000   0.5000000), wk =   0.0320000
        k(   43) = (   0.3000000  -0.1000000  -0.5000000), wk =   0.0320000
        k(   44) = (  -0.5000000  -0.3000000   0.1000000), wk =   0.0320000
        k(   45) = (   0.5000000  -0.3000000  -0.1000000), wk =   0.0320000
        k(   46) = (  -0.1000000  -0.5000000   0.3000000), wk =   0.0320000
        k(   47) = (  -0.1000000   0.5000000  -0.3000000), wk =   0.0320000
        k(   48) = (   0.3000000  -0.5000000   0.1000000), wk =   0.0320000
        k(   49) = (   0.3000000   0.5000000  -0.1000000), wk =   0.0320000
        k(   50) = (  -0.5000000   0.1000000   0.3000000), wk =   0.0320000
        k(   51) = (   0.5000000  -0.1000000   0.3000000), wk =   0.0320000
        k(   52) = (  -0.5000000   0.1000000   0.5000000), wk =   0.0320000
        k(   53) = (  -0.5000000   0.5000000   0.1000000), wk =   0.0320000
        k(   54) = (  -0.3000000  -0.3000000   0.3000000), wk =   0.0320000
        k(   55) = (  -0.3000000   0.3000000  -0.3000000), wk =   0.0320000
        k(   56) = (   0.3000000  -0.3000000  -0.3000000), wk =   0.0320000
        k(   57) = (  -0.3000000   0.3000000   0.5000000), wk =   0.0320000
        k(   58) = (  -0.5000000  -0.3000000   0.3000000), wk =   0.0320000
        k(   59) = (   0.5000000  -0.3000000  -0.3000000), wk =   0.0320000
        k(   60) = (  -0.3000000  -0.5000000   0.3000000), wk =   0.0320000
        k(   61) = (  -0.3000000   0.5000000  -0.3000000), wk =   0.0320000
        k(   62) = (  -0.5000000   0.3000000   0.5000000), wk =   0.0320000
        k(   63) = (  -0.5000000   0.5000000   0.3000000), wk =   0.0320000

     Dense  grid:    21247 G-vectors     FFT dimensions: (  36,  36,  36)

     Smooth grid:    12533 G-vectors     FFT dimensions: (  30,  30,  30)

     Estimated max dynamical RAM per process >       9.70Mb

     Estimated total allocated dynamical RAM >      38.81Mb

     Initial potential from superposition of free atoms

     starting charge   11.99084, renormalised to   12.00000
     Starting wfc are   16 randomized atomic wfcs
     Checking if some PAW data can be deallocated... 

     total cpu time spent up to now is        2.5 secs

     per-process dynamical memory:    16.8 Mb

     Self-consistent Calculation

     iteration #  1     ecut=    35.00 Ry     beta=0.30
     Davidson diagonalization with overlap
     ethr =  1.00E-02,  avg # of iterations =  3.1

     Threshold (ethr) on eigenvalues was too large:
     Diagonalizing with lowered threshold

     Davidson diagonalization with overlap
     ethr =  1.95E-04,  avg # of iterations =  3.5

     total cpu time spent up to now is        6.3 secs

     total energy              =    -158.00347431 Ry
     Harris-Foulkes estimate   =    -158.00587559 Ry
     estimated scf accuracy    <       0.02273204 Ry

     iteration #  2     ecut=    35.00 Ry     beta=0.30
     Davidson diagonalization with overlap
     ethr =  1.89E-04,  avg # of iterations =  1.0

     total cpu time spent up to now is        7.6 secs

     total energy              =    -157.99911153 Ry
     Harris-Foulkes estimate   =    -158.00361425 Ry
     estimated scf accuracy    <       0.01412871 Ry

     iteration #  3     ecut=    35.00 Ry     beta=0.30
     Davidson diagonalization with overlap
     ethr =  1.18E-04,  avg # of iterations =  1.7

     total cpu time spent up to now is        9.1 secs

     total energy              =    -157.99938575 Ry
     Harris-Foulkes estimate   =    -157.99944386 Ry
     estimated scf accuracy    <       0.00002809 Ry

     iteration #  4     ecut=    35.00 Ry     beta=0.30
     Davidson diagonalization with overlap
     c_bands:  1 eigenvalues not converged
     ethr =  2.34E-07,  avg # of iterations =  5.8

     total cpu time spent up to now is       11.6 secs

     total energy              =    -157.99944011 Ry
     Harris-Foulkes estimate   =    -157.99945957 Ry
     estimated scf accuracy    <       0.00001391 Ry

     iteration #  5     ecut=    35.00 Ry     beta=0.30
     Davidson diagonalization with overlap
     ethr =  1.16E-07,  avg # of iterations =  1.5

     total cpu time spent up to now is       13.0 secs

     total energy              =    -157.99943549 Ry
     Harris-Foulkes estimate   =    -157.99944106 Ry
     estimated scf accuracy    <       0.00000427 Ry

     iteration #  6     ecut=    35.00 Ry     beta=0.30
     Davidson diagonalization with overlap
     ethr =  3.56E-08,  avg # of iterations =  2.0

     total cpu time spent up to now is       14.7 secs

     End of self-consistent calculation

          k = 0.1000 0.1000 0.1000 (  1542 PWs)   bands (ev):

    -2.9538   4.0519   4.0607   4.0694   7.7569   7.7669   7.7767  10.7784
    10.7893  10.8005

          k = 0.1000 0.1000 0.3000 (  1532 PWs)   bands (ev):

    -2.2304   1.3293   4.7377   4.7502   8.0419   8.0644   8.5622   8.5646
    11.3817  11.8249

          k = 0.1000 0.1000-0.5000 (  1556 PWs)   bands (ev):

    -0.8074  -0.7817   5.9857   5.9872   6.2327   6.2343   9.5346   9.5350
    10.2074  10.2080

          k = 0.1000 0.3000 0.3000 (  1565 PWs)   bands (ev):

    -1.5106   2.0255   2.0369   5.3268   5.5974   8.8119   8.8277   9.1760
    12.2017  12.2266

          k = 0.1000 0.3000-0.5000 (  1560 PWs)   bands (ev):

    -0.0947  -0.0690   3.4106   3.4367   6.7870   6.8150  10.1542  10.1836
    10.5034  10.5276

          k = 0.1000-0.5000-0.5000 (  1548 PWs)   bands (ev):

     1.3178   1.3206   1.3451   1.3479   8.1377   8.1413   8.1685   8.1721
    11.8473  11.8481

          k = 0.3000 0.3000 0.3000 (  1556 PWs)   bands (ev):

    -0.7944   2.7198   2.7292   2.7385   6.1781   6.1882   6.1982   9.5750
    13.0957  13.1037

          k = 0.3000 0.3000-0.5000 (  1546 PWs)   bands (ev):

     0.6146   0.6404   3.9959   3.9973   4.2523   4.2537   7.5383   7.5658
    14.1982  14.6063

          k = 0.3000-0.5000-0.5000 (  1564 PWs)   bands (ev):

     2.0199   2.0227   2.0473   2.0501   5.4939   5.4967   5.5221   5.5250
    15.6472  15.6671

          k =-0.5000-0.5000-0.5000 (  1568 PWs)   bands (ev):

     3.3231   3.3236   3.3246   3.3250   3.5481   3.5487   3.5493   3.5503
    19.3530  19.3573

          k =-0.1000-0.1000 0.1000 (  1542 PWs)   bands (ev):

    -2.9538   4.0537   4.0607   4.0676   7.7590   7.7669   7.7746  10.7807
    10.7893  10.7982

          k =-0.1000 0.1000-0.1000 (  1542 PWs)   bands (ev):

    -2.9538   4.0555   4.0607   4.0657   7.7611   7.7669   7.7726  10.7829
    10.7894  10.7958

          k = 0.1000-0.1000-0.1000 (  1542 PWs)   bands (ev):

    -2.9538   4.0545   4.0606   4.0667   7.7600   7.7669   7.7737  10.7817
    10.7894  10.7971

          k =-0.1000-0.1000 0.3000 (  1532 PWs)   bands (ev):

    -2.2304   1.3293   4.7376   4.7502   8.0420   8.0645   8.5622   8.5645
    11.3817  11.8257

          k =-0.1000 0.1000-0.3000 (  1532 PWs)   bands (ev):

    -2.2304   1.3293   4.7411   4.7468   8.0481   8.0584   8.5628   8.5639
    11.3817  11.8255

          k = 0.1000-0.1000-0.3000 (  1532 PWs)   bands (ev):

    -2.2304   1.3293   4.7411   4.7468   8.0479   8.0583   8.5630   8.5640
    11.3817  11.8251

          k = 0.3000-0.1000 0.1000 (  1532 PWs)   bands (ev):

    -2.2304   1.3292   4.7411   4.7469   8.0479   8.0584   8.5628   8.5639
    11.3819  11.8251

          k =-0.3000-0.1000-0.1000 (  1532 PWs)   bands (ev):

    -2.2304   1.3292   4.7386   4.7494   8.0436   8.0628   8.5624   8.5644
    11.3817  11.8230

          k = 0.3000 0.1000-0.1000 (  1532 PWs)   bands (ev):

    -2.2304   1.3292   4.7411   4.7469   8.0479   8.0584   8.5628   8.5639
    11.3819  11.8255

          k =-0.3000 0.1000 0.1000 (  1532 PWs)   bands (ev):

    -2.2304   1.3292   4.7386   4.7494   8.0436   8.0628   8.5624   8.5644
    11.3816  11.8254

          k =-0.1000 0.3000 0.1000 (  1532 PWs)   bands (ev):

    -2.2304   1.3292   4.7432   4.7448   8.0517   8.0546   8.5632   8.5635
    11.3818  11.8219

          k =-0.1000-0.3000-0.1000 (  1532 PWs)   bands (ev):

    -2.2304   1.3292   4.7409   4.7471   8.0476   8.0588   8.5628   8.5639
    11.3819  11.8208

          k = 0.1000 0.3000-0.1000 (  1532 PWs)   bands (ev):

    -2.2304   1.3292   4.7432   4.7448   8.0517   8.0547   8.5632   8.5635
    11.3818  11.8186

          k = 0.1000-0.3000 0.1000 (  1532 PWs)   bands (ev):

    -2.2304   1.3292   4.7409   4.7471   8.0476   8.0588   8.5628   8.5639
    11.3818  11.8199

          k =-0.1000 0.1000 0.5000 (  1556 PWs)   bands (ev):

    -0.8074  -0.7817   5.9862   5.9869   6.2330   6.2338   9.5347   9.5350
    10.2074  10.2079

          k =-0.5000-0.1000 0.1000 (  1556 PWs)   bands (ev):

    -0.7960  -0.7931   5.9872   5.9874   6.2324   6.2328   9.5349   9.5351
    10.2072  10.2077

          k = 0.5000-0.1000-0.1000 (  1556 PWs)   bands (ev):

    -0.7960  -0.7931   5.9871   5.9874   6.2325   6.2329   9.5349   9.5351
    10.2072  10.2076

          k =-0.1000-0.5000 0.1000 (  1556 PWs)   bands (ev):

    -0.7950  -0.7941   5.9873   5.9874   6.2325   6.2326   9.5349   9.5351
    10.2074  10.2074

          k =-0.1000 0.5000-0.1000 (  1556 PWs)   bands (ev):

    -0.7950  -0.7941   5.9873   5.9874   6.2326   6.2326   9.5349   9.5350
    10.2074  10.2075

          k =-0.1000-0.3000 0.3000 (  1565 PWs)   bands (ev):

    -1.5106   2.0280   2.0343   5.3269   5.5974   8.8155   8.8241   9.1761
    12.2073  12.2205

          k =-0.1000 0.3000-0.3000 (  1565 PWs)   bands (ev):

    -1.5106   2.0280   2.0343   5.3268   5.5974   8.8155   8.8241   9.1760
    12.2078  12.2212

          k = 0.1000-0.3000-0.3000 (  1565 PWs)   bands (ev):

    -1.5106   2.0255   2.0369   5.3268   5.5974   8.8119   8.8277   9.1761
    12.2030  12.2268

          k = 0.3000 0.1000-0.3000 (  1565 PWs)   bands (ev):

    -1.5106   2.0303   2.0320   5.3268   5.5974   8.8185   8.8210   9.1762
    12.2131  12.2157

          k =-0.3000-0.1000-0.3000 (  1565 PWs)   bands (ev):

    -1.5106   2.0279   2.0344   5.3269   5.5974   8.8150   8.8242   9.1764
    12.1682  12.2085

          k = 0.3000-0.1000 0.3000 (  1565 PWs)   bands (ev):

    -1.5106   2.0279   2.0344   5.3268   5.5974   8.8151   8.8243   9.1762
    12.2065  12.2191

          k =-0.3000 0.1000 0.3000 (  1565 PWs)   bands (ev):

    -1.5106   2.0303   2.0320   5.3269   5.5974   8.8184   8.8208   9.1765
    12.2124  12.2164

          k = 0.3000-0.3000 0.1000 (  1565 PWs)   bands (ev):

    -1.5106   2.0281   2.0342   5.3269   5.5974   8.8156   8.8241   9.1760
    12.2079  12.2208

          k =-0.3000-0.3000-0.1000 (  1565 PWs)   bands (ev):

    -1.5106   2.0244   2.0378   5.3269   5.5974   8.8106   8.8292   9.1760
    12.2006  12.2283

          k = 0.3000 0.3000-0.1000 (  1565 PWs)   bands (ev):

    -1.5106   2.0244   2.0378   5.3269   5.5974   8.8106   8.8292   9.1760
    12.2007  12.2283

          k =-0.3000 0.3000 0.1000 (  1565 PWs)   bands (ev):

    -1.5106   2.0281   2.0342   5.3269   5.5974   8.8156   8.8241   9.1760
    12.2040  12.2151

          k =-0.1000 0.3000 0.5000 (  1560 PWs)   bands (ev):

    -0.0947  -0.0690   3.4106   3.4368   6.7870   6.8150  10.1542  10.1836
    10.5035  10.5276

          k = 0.3000 0.1000 0.5000 (  1560 PWs)   bands (ev):

    -0.0947  -0.0690   3.4106   3.4367   6.7870   6.8150  10.1541  10.1835
    10.5035  10.5277

          k = 0.3000-0.1000-0.5000 (  1560 PWs)   bands (ev):

    -0.0947  -0.0690   3.4106   3.4367   6.7870   6.8150  10.1541  10.1835
    10.5036  10.5278

          k =-0.5000-0.3000 0.1000 (  1560 PWs)   bands (ev):

    -0.0833  -0.0804   3.4221   3.4251   6.7994   6.8026  10.1673  10.1707
    10.5141  10.5168

          k = 0.5000-0.3000-0.1000 (  1560 PWs)   bands (ev):

    -0.0833  -0.0804   3.4221   3.4251   6.7994   6.8026  10.1670  10.1704
    10.5143  10.5171

          k =-0.1000-0.5000 0.3000 (  1560 PWs)   bands (ev):

    -0.0824  -0.0814   3.4233   3.4242   6.8004   6.8014  10.1684  10.1694
    10.5151  10.5160

          k =-0.1000 0.5000-0.3000 (  1560 PWs)   bands (ev):

    -0.0824  -0.0814   3.4233   3.4242   6.8004   6.8014  10.1685  10.1695
    10.5150  10.5159

          k = 0.3000-0.5000 0.1000 (  1560 PWs)   bands (ev):

    -0.0823  -0.0814   3.4232   3.4241   6.8005   6.8015  10.1684  10.1694
    10.5151  10.5160

          k = 0.3000 0.5000-0.1000 (  1560 PWs)   bands (ev):

    -0.0823  -0.0814   3.4232   3.4241   6.8005   6.8015  10.1683  10.1694
    10.5152  10.5161

          k =-0.5000 0.1000 0.3000 (  1560 PWs)   bands (ev):

    -0.0834  -0.0804   3.4222   3.4252   6.7993   6.8025  10.1670  10.1703
    10.5144  10.5171

          k = 0.5000-0.1000 0.3000 (  1560 PWs)   bands (ev):

    -0.0834  -0.0804   3.4222   3.4252   6.7993   6.8025  10.1672  10.1706
    10.5142  10.5169

          k =-0.5000 0.1000 0.5000 (  1548 PWs)   bands (ev):

     1.3179   1.3216   1.3439   1.3480   8.1382   8.1425   8.1670   8.1719
    11.8466  11.8498

          k =-0.5000 0.5000 0.1000 (  1548 PWs)   bands (ev):

     1.3258   1.3295   1.3360   1.3399   8.1458   8.1507   8.1591   8.1641
    11.8582  11.8613

          k =-0.3000-0.3000 0.3000 (  1556 PWs)   bands (ev):

    -0.7944   2.7218   2.7292   2.7365   6.1802   6.1881   6.1962   9.5750
    13.0984  13.1087

          k =-0.3000 0.3000-0.3000 (  1556 PWs)   bands (ev):

    -0.7944   2.7237   2.7292   2.7346   6.1823   6.1882   6.1940   9.5751
    13.0999  13.1057

          k = 0.3000-0.3000-0.3000 (  1556 PWs)   bands (ev):

    -0.7944   2.7227   2.7292   2.7357   6.1812   6.1882   6.1952   9.5750
    13.0982  13.1023

          k =-0.3000 0.3000 0.5000 (  1546 PWs)   bands (ev):

     0.6146   0.6404   3.9964   3.9971   4.2525   4.2532   7.5383   7.5658
    14.1985  14.1990

          k =-0.5000-0.3000 0.3000 (  1546 PWs)   bands (ev):

     0.6259   0.6289   3.9973   3.9975   4.2520   4.2524   7.5506   7.5537
    14.1990  14.1991

          k = 0.5000-0.3000-0.3000 (  1546 PWs)   bands (ev):

     0.6259   0.6289   3.9972   3.9974   4.2521   4.2525   7.5505   7.5537
    14.1989  14.1991

          k =-0.3000-0.5000 0.3000 (  1546 PWs)   bands (ev):

     0.6270   0.6279   3.9974   3.9975   4.2521   4.2521   7.5516   7.5526
    14.6060  14.6062

          k =-0.3000 0.5000-0.3000 (  1546 PWs)   bands (ev):

     0.6270   0.6279   3.9974   3.9974   4.2522   4.2522   7.5516   7.5526
    14.1991  14.6062

          k =-0.5000 0.3000 0.5000 (  1564 PWs)   bands (ev):

     2.0201   2.0237   2.0461   2.0501   5.4940   5.4978   5.5209   5.5251
    15.6476  15.6596

          k =-0.5000 0.5000 0.3000 (  1564 PWs)   bands (ev):

     2.0280   2.0317   2.0381   2.0420   5.5022   5.5061   5.5128   5.5169
    15.6575  15.6637

     the Fermi energy is     8.0751 ev

!    total energy              =    -157.99943626 Ry
     Harris-Foulkes estimate   =    -157.99943629 Ry
     estimated scf accuracy    <       0.00000015 Ry

     total all-electron energy =     -1942.570564 Ry

     The total energy is the sum of the following terms:

     one-electron contribution =      12.68726299 Ry
     hartree contribution      =       0.02390183 Ry
     xc contribution           =     -10.36775914 Ry
     ewald contribution        =     -21.63225602 Ry
     one-center paw contrib.   =    -138.70878076 Ry
     smearing contrib. (-TS)   =      -0.00180515 Ry

     convergence has been achieved in   6 iterations

     Forces acting on atoms (Ry/au):

     atom    1 type  1   force =     0.00013361   -0.00001905    0.00086260
     atom    2 type  2   force =    -0.00039231    0.00064765    0.00085712
     atom    3 type  3   force =     0.00015955   -0.00002449   -0.00105463
     atom    4 type  4   force =     0.00009915   -0.00060410   -0.00066509

     Total force =     0.002006     Total SCF correction =     0.000100


     entering subroutine stress ...

          total   stress  (Ry/bohr**3)                   (kbar)     P=    0.83
   0.00000559  -0.00000004  -0.00000007          0.82     -0.01     -0.01
  -0.00000004   0.00000585   0.00000019         -0.01      0.86      0.03
  -0.00000007   0.00000019   0.00000542         -0.01      0.03      0.80


     Writing output data file template.save

     init_run     :      1.40s CPU      1.42s WALL (       1 calls)
     electrons    :     12.00s CPU     12.16s WALL (       1 calls)
     forces       :      0.16s CPU      0.16s WALL (       1 calls)
     stress       :      0.48s CPU      0.49s WALL (       1 calls)

     Called by init_run:
     wfcinit      :      0.82s CPU      0.84s WALL (       1 calls)
     potinit      :      0.12s CPU      0.12s WALL (       1 calls)

     Called by electrons:
     c_bands      :      9.65s CPU      9.79s WALL (       7 calls)
     sum_band     :      1.74s CPU      1.76s WALL (       7 calls)
     v_of_rho     :      0.08s CPU      0.08s WALL (       7 calls)
     newd         :      0.10s CPU      0.10s WALL (       7 calls)
     PAW_pot      :      0.48s CPU      0.47s WALL (       7 calls)
     mix_rho      :      0.04s CPU      0.04s WALL (       7 calls)

     Called by c_bands:
     init_us_2    :      0.22s CPU      0.24s WALL (    1071 calls)
     cegterg      :      9.45s CPU      9.52s WALL (     441 calls)

     Called by sum_band:
     sum_band:bec :      0.00s CPU      0.00s WALL (     441 calls)
     addusdens    :      0.12s CPU      0.11s WALL (       7 calls)

     Called by *egterg:
     h_psi        :      8.98s CPU      9.05s WALL (    1674 calls)
     s_psi        :      0.16s CPU      0.17s WALL (    1674 calls)
     g_psi        :      0.02s CPU      0.02s WALL (    1170 calls)
     cdiaghg      :      0.37s CPU      0.37s WALL (    1548 calls)

     Called by h_psi:
     h_psi:pot    :      8.96s CPU      9.03s WALL (    1674 calls)
     h_psi:calbec :      0.22s CPU      0.25s WALL (    1674 calls)
     vloc_psi     :      8.52s CPU      8.60s WALL (    1674 calls)
     add_vuspsi   :      0.21s CPU      0.18s WALL (    1674 calls)

     General routines
     calbec       :      0.34s CPU      0.37s WALL (    2430 calls)
     fft          :      0.08s CPU      0.09s WALL (     137 calls)
     ffts         :      0.04s CPU      0.03s WALL (      79 calls)
     fftw         :      9.48s CPU      9.58s WALL (   29850 calls)
     interpolate  :      0.01s CPU      0.02s WALL (      14 calls)
     davcio       :      0.00s CPU      0.00s WALL (      63 calls)

     Parallel routines
     fft_scatter  :      2.00s CPU      1.93s WALL (   30066 calls)

     PWSCF        :    15.22s CPU        15.53s WALL


   This run was terminated on:  15:50:36   9Jun2017            

=------------------------------------------------------------------------------=
   JOB DONE.
=------------------------------------------------------------------------------=
