
     Program PWSCF v.6.0 (svn rev. 13079) starts on  9Jun2017 at 15:54: 9 

     This program is part of the open-source Quantum ESPRESSO suite
     for quantum simulation of materials; please cite
         "P. Giannozzi et al., J. Phys.:Condens. Matter 21 395502 (2009);
          URL http://www.quantum-espresso.org", 
     in publications or presentations arising from this work. More details at
     http://www.quantum-espresso.org/quote

     Parallel version (MPI), running on     4 processors
     R & G space division:  proc/nbgrp/npool/nimage =       4
     Waiting for input...
     Reading input from standard input
Warning: card &IONS ignored
Warning: card ION_DYNAMICS='BFGS', ignored
Warning: card / ignored
Warning: card &CELL ignored
Warning: card CELL_DYNAMICS='BFGS', ignored
Warning: card PRESS = 0.0, ignored
Warning: card CELL_FACTOR = 2.0, ignored
Warning: card / ignored

     Current dimensions of program PWSCF are:
     Max number of different atomic species (ntypx) = 10
     Max number of k-points (npk) =  40000
     Max angular momentum in pseudopotentials (lmaxx) =  3
               file Al.pbe-nl-kjpaw_psl.1.0.0.UPF: wavefunction(s)  3S 3P renormalized
               file Al.pbe-nl-kjpaw_psl.1.0.0.UPF: wavefunction(s)  3S 3P renormalized
               file Al.pbe-nl-kjpaw_psl.1.0.0.UPF: wavefunction(s)  3S 3P renormalized
               file Al.pbe-nl-kjpaw_psl.1.0.0.UPF: wavefunction(s)  3S 3P renormalized

     Subspace diagonalization in iterative solution of the eigenvalue problem:
     a serial algorithm will be used


     Parallelization info
     --------------------
     sticks:   dense  smooth     PW     G-vecs:    dense   smooth      PW
     Min         232     164     49                 5310     3132     527
     Max         234     165     50                 5313     3135     528
     Sum         933     657    197                21247    12533    2109



     bravais-lattice index     =            0
     lattice parameter (alat)  =       7.6300  a.u.
     unit-cell volume          =     444.1949 (a.u.)^3
     number of atoms/cell      =            4
     number of atomic types    =            4
     number of electrons       =        12.00
     number of Kohn-Sham states=           10
     kinetic-energy cutoff     =      35.0000  Ry
     charge density cutoff     =     200.0000  Ry
     convergence threshold     =      1.0E-06
     mixing beta               =       0.3000
     number of iterations used =           10  local-TF  mixing
     Exchange-correlation      =  SLA  PW   PBX  PBC ( 1  4  3  4 0 0)

     celldm(1)=   7.630000  celldm(2)=   0.000000  celldm(3)=   0.000000
     celldm(4)=   0.000000  celldm(5)=   0.000000  celldm(6)=   0.000000

     crystal axes: (cart. coord. in units of alat)
               a(1) = (   1.000000   0.000000   0.000000 )  
               a(2) = (   0.000000   1.000000   0.000000 )  
               a(3) = (   0.000000   0.000000   1.000000 )  

     reciprocal axes: (cart. coord. in units 2 pi/alat)
               b(1) = (  1.000000  0.000000  0.000000 )  
               b(2) = (  0.000000  1.000000  0.000000 )  
               b(3) = (  0.000000  0.000000  1.000000 )  


     PseudoPot. # 1 for Al read from file:
     /home/ben/espresso/pp/Al.pbe-nl-kjpaw_psl.1.0.0.UPF
     MD5 check sum: 339dbea23cf3ab9a065ad45c0f9085d7
     Pseudo is Projector augmented-wave + core cor, Zval =  3.0
     Generated using "atomic" code by A. Dal Corso  v.5.1
     Shape of augmentation charge: PSQ
     Using radial grid of 1135 points,  4 beta functions with: 
                l(1) =   0
                l(2) =   0
                l(3) =   1
                l(4) =   1
     Q(r) pseudized with 0 coefficients 


     PseudoPot. # 2 for Al read from file:
     /home/ben/espresso/pp/Al.pbe-nl-kjpaw_psl.1.0.0.UPF
     MD5 check sum: 339dbea23cf3ab9a065ad45c0f9085d7
     Pseudo is Projector augmented-wave + core cor, Zval =  3.0
     Generated using "atomic" code by A. Dal Corso  v.5.1
     Shape of augmentation charge: PSQ
     Using radial grid of 1135 points,  4 beta functions with: 
                l(1) =   0
                l(2) =   0
                l(3) =   1
                l(4) =   1
     Q(r) pseudized with 0 coefficients 


     PseudoPot. # 3 for Al read from file:
     /home/ben/espresso/pp/Al.pbe-nl-kjpaw_psl.1.0.0.UPF
     MD5 check sum: 339dbea23cf3ab9a065ad45c0f9085d7
     Pseudo is Projector augmented-wave + core cor, Zval =  3.0
     Generated using "atomic" code by A. Dal Corso  v.5.1
     Shape of augmentation charge: PSQ
     Using radial grid of 1135 points,  4 beta functions with: 
                l(1) =   0
                l(2) =   0
                l(3) =   1
                l(4) =   1
     Q(r) pseudized with 0 coefficients 


     PseudoPot. # 4 for Al read from file:
     /home/ben/espresso/pp/Al.pbe-nl-kjpaw_psl.1.0.0.UPF
     MD5 check sum: 339dbea23cf3ab9a065ad45c0f9085d7
     Pseudo is Projector augmented-wave + core cor, Zval =  3.0
     Generated using "atomic" code by A. Dal Corso  v.5.1
     Shape of augmentation charge: PSQ
     Using radial grid of 1135 points,  4 beta functions with: 
                l(1) =   0
                l(2) =   0
                l(3) =   1
                l(4) =   1
     Q(r) pseudized with 0 coefficients 


     atomic species   valence    mass     pseudopotential
        Al1            3.00    26.98200     Al( 1.00)
        Al2            3.00    26.98200     Al( 1.00)
        Al3            3.00    26.98200     Al( 1.00)
        Al4            3.00    26.98200     Al( 1.00)

     No symmetry found



   Cartesian axes

     site n.     atom                  positions (alat units)
         1           Al1 tau(   1) = (   0.9978388   0.0006289   0.0044996  )
         2           Al2 tau(   2) = (   0.5052645   0.4874352   0.0046508  )
         3           Al3 tau(   3) = (   0.4938581   0.0020168   0.5195430  )
         4           Al4 tau(   4) = (   0.9986770   0.5144647   0.5121488  )

     number of k points=    63  Marzari-Vanderbilt smearing, width (Ry)=  0.0200
                       cart. coord. in units 2pi/alat
        k(    1) = (   0.1000000   0.1000000   0.1000000), wk =   0.0320000
        k(    2) = (   0.1000000   0.1000000   0.3000000), wk =   0.0320000
        k(    3) = (   0.1000000   0.1000000  -0.5000000), wk =   0.0320000
        k(    4) = (   0.1000000   0.3000000   0.3000000), wk =   0.0320000
        k(    5) = (   0.1000000   0.3000000  -0.5000000), wk =   0.0320000
        k(    6) = (   0.1000000  -0.5000000  -0.5000000), wk =   0.0320000
        k(    7) = (   0.3000000   0.3000000   0.3000000), wk =   0.0320000
        k(    8) = (   0.3000000   0.3000000  -0.5000000), wk =   0.0320000
        k(    9) = (   0.3000000  -0.5000000  -0.5000000), wk =   0.0320000
        k(   10) = (  -0.5000000  -0.5000000  -0.5000000), wk =   0.0160000
        k(   11) = (  -0.1000000  -0.1000000   0.1000000), wk =   0.0320000
        k(   12) = (  -0.1000000   0.1000000  -0.1000000), wk =   0.0320000
        k(   13) = (   0.1000000  -0.1000000  -0.1000000), wk =   0.0320000
        k(   14) = (  -0.1000000  -0.1000000   0.3000000), wk =   0.0320000
        k(   15) = (  -0.1000000   0.1000000  -0.3000000), wk =   0.0320000
        k(   16) = (   0.1000000  -0.1000000  -0.3000000), wk =   0.0320000
        k(   17) = (   0.3000000  -0.1000000   0.1000000), wk =   0.0320000
        k(   18) = (  -0.3000000  -0.1000000  -0.1000000), wk =   0.0320000
        k(   19) = (   0.3000000   0.1000000  -0.1000000), wk =   0.0320000
        k(   20) = (  -0.3000000   0.1000000   0.1000000), wk =   0.0320000
        k(   21) = (  -0.1000000   0.3000000   0.1000000), wk =   0.0320000
        k(   22) = (  -0.1000000  -0.3000000  -0.1000000), wk =   0.0320000
        k(   23) = (   0.1000000   0.3000000  -0.1000000), wk =   0.0320000
        k(   24) = (   0.1000000  -0.3000000   0.1000000), wk =   0.0320000
        k(   25) = (  -0.1000000   0.1000000   0.5000000), wk =   0.0320000
        k(   26) = (  -0.5000000  -0.1000000   0.1000000), wk =   0.0320000
        k(   27) = (   0.5000000  -0.1000000  -0.1000000), wk =   0.0320000
        k(   28) = (  -0.1000000  -0.5000000   0.1000000), wk =   0.0320000
        k(   29) = (  -0.1000000   0.5000000  -0.1000000), wk =   0.0320000
        k(   30) = (  -0.1000000  -0.3000000   0.3000000), wk =   0.0320000
        k(   31) = (  -0.1000000   0.3000000  -0.3000000), wk =   0.0320000
        k(   32) = (   0.1000000  -0.3000000  -0.3000000), wk =   0.0320000
        k(   33) = (   0.3000000   0.1000000  -0.3000000), wk =   0.0320000
        k(   34) = (  -0.3000000  -0.1000000  -0.3000000), wk =   0.0320000
        k(   35) = (   0.3000000  -0.1000000   0.3000000), wk =   0.0320000
        k(   36) = (  -0.3000000   0.1000000   0.3000000), wk =   0.0320000
        k(   37) = (   0.3000000  -0.3000000   0.1000000), wk =   0.0320000
        k(   38) = (  -0.3000000  -0.3000000  -0.1000000), wk =   0.0320000
        k(   39) = (   0.3000000   0.3000000  -0.1000000), wk =   0.0320000
        k(   40) = (  -0.3000000   0.3000000   0.1000000), wk =   0.0320000
        k(   41) = (  -0.1000000   0.3000000   0.5000000), wk =   0.0320000
        k(   42) = (   0.3000000   0.1000000   0.5000000), wk =   0.0320000
        k(   43) = (   0.3000000  -0.1000000  -0.5000000), wk =   0.0320000
        k(   44) = (  -0.5000000  -0.3000000   0.1000000), wk =   0.0320000
        k(   45) = (   0.5000000  -0.3000000  -0.1000000), wk =   0.0320000
        k(   46) = (  -0.1000000  -0.5000000   0.3000000), wk =   0.0320000
        k(   47) = (  -0.1000000   0.5000000  -0.3000000), wk =   0.0320000
        k(   48) = (   0.3000000  -0.5000000   0.1000000), wk =   0.0320000
        k(   49) = (   0.3000000   0.5000000  -0.1000000), wk =   0.0320000
        k(   50) = (  -0.5000000   0.1000000   0.3000000), wk =   0.0320000
        k(   51) = (   0.5000000  -0.1000000   0.3000000), wk =   0.0320000
        k(   52) = (  -0.5000000   0.1000000   0.5000000), wk =   0.0320000
        k(   53) = (  -0.5000000   0.5000000   0.1000000), wk =   0.0320000
        k(   54) = (  -0.3000000  -0.3000000   0.3000000), wk =   0.0320000
        k(   55) = (  -0.3000000   0.3000000  -0.3000000), wk =   0.0320000
        k(   56) = (   0.3000000  -0.3000000  -0.3000000), wk =   0.0320000
        k(   57) = (  -0.3000000   0.3000000   0.5000000), wk =   0.0320000
        k(   58) = (  -0.5000000  -0.3000000   0.3000000), wk =   0.0320000
        k(   59) = (   0.5000000  -0.3000000  -0.3000000), wk =   0.0320000
        k(   60) = (  -0.3000000  -0.5000000   0.3000000), wk =   0.0320000
        k(   61) = (  -0.3000000   0.5000000  -0.3000000), wk =   0.0320000
        k(   62) = (  -0.5000000   0.3000000   0.5000000), wk =   0.0320000
        k(   63) = (  -0.5000000   0.5000000   0.3000000), wk =   0.0320000

     Dense  grid:    21247 G-vectors     FFT dimensions: (  36,  36,  36)

     Smooth grid:    12533 G-vectors     FFT dimensions: (  30,  30,  30)

     Estimated max dynamical RAM per process >       9.70Mb

     Estimated total allocated dynamical RAM >      38.81Mb

     Initial potential from superposition of free atoms

     starting charge   11.99084, renormalised to   12.00000
     Starting wfc are   16 randomized atomic wfcs
     Checking if some PAW data can be deallocated... 

     total cpu time spent up to now is        2.3 secs

     per-process dynamical memory:    16.8 Mb

     Self-consistent Calculation

     iteration #  1     ecut=    35.00 Ry     beta=0.30
     Davidson diagonalization with overlap
     ethr =  1.00E-02,  avg # of iterations =  3.1

     Threshold (ethr) on eigenvalues was too large:
     Diagonalizing with lowered threshold

     Davidson diagonalization with overlap
     ethr =  2.03E-04,  avg # of iterations =  4.1

     total cpu time spent up to now is       11.2 secs

     total energy              =    -158.00223512 Ry
     Harris-Foulkes estimate   =    -158.00480655 Ry
     estimated scf accuracy    <       0.02387879 Ry

     iteration #  2     ecut=    35.00 Ry     beta=0.30
     Davidson diagonalization with overlap
     ethr =  1.99E-04,  avg # of iterations =  1.2

     total cpu time spent up to now is       15.7 secs

     total energy              =    -157.99753985 Ry
     Harris-Foulkes estimate   =    -158.00239750 Ry
     estimated scf accuracy    <       0.01480204 Ry

     iteration #  3     ecut=    35.00 Ry     beta=0.30
     Davidson diagonalization with overlap
     ethr =  1.23E-04,  avg # of iterations =  1.4

     total cpu time spent up to now is       18.1 secs

     total energy              =    -157.99796889 Ry
     Harris-Foulkes estimate   =    -157.99801968 Ry
     estimated scf accuracy    <       0.00003469 Ry

     iteration #  4     ecut=    35.00 Ry     beta=0.30
     Davidson diagonalization with overlap
     ethr =  2.89E-07,  avg # of iterations =  7.5

     total cpu time spent up to now is       20.9 secs

     total energy              =    -157.99807127 Ry
     Harris-Foulkes estimate   =    -157.99807526 Ry
     estimated scf accuracy    <       0.00004640 Ry

     iteration #  5     ecut=    35.00 Ry     beta=0.30
     Davidson diagonalization with overlap
     ethr =  2.89E-07,  avg # of iterations =  1.0

     total cpu time spent up to now is       22.3 secs

     total energy              =    -157.99802344 Ry
     Harris-Foulkes estimate   =    -157.99807136 Ry
     estimated scf accuracy    <       0.00004038 Ry

     iteration #  6     ecut=    35.00 Ry     beta=0.30
     Davidson diagonalization with overlap
     ethr =  2.89E-07,  avg # of iterations =  2.2

     total cpu time spent up to now is       23.9 secs

     total energy              =    -157.99803482 Ry
     Harris-Foulkes estimate   =    -157.99803564 Ry
     estimated scf accuracy    <       0.00000365 Ry

     iteration #  7     ecut=    35.00 Ry     beta=0.30
     Davidson diagonalization with overlap
     ethr =  3.04E-08,  avg # of iterations =  1.1

     total cpu time spent up to now is       25.2 secs

     total energy              =    -157.99803398 Ry
     Harris-Foulkes estimate   =    -157.99803499 Ry
     estimated scf accuracy    <       0.00000151 Ry

     iteration #  8     ecut=    35.00 Ry     beta=0.30
     Davidson diagonalization with overlap
     ethr =  1.25E-08,  avg # of iterations =  2.2

     total cpu time spent up to now is       26.9 secs

     End of self-consistent calculation

          k = 0.1000 0.1000 0.1000 (  1542 PWs)   bands (ev):

    -2.9576   3.9781   4.0601   4.1346   7.6714   7.7634   7.8478  10.6920
    10.7827  10.8894

          k = 0.1000 0.1000 0.3000 (  1532 PWs)   bands (ev):

    -2.2358   1.3304   4.6817   4.7940   7.9464   8.1457   8.5537   8.5749
    11.3737  11.7736

          k = 0.1000 0.1000-0.5000 (  1556 PWs)   bands (ev):

    -0.9103  -0.6826   5.8877   5.9701   6.2438   6.3272   9.4990   9.5284
    10.2060  10.2349

          k = 0.1000 0.3000 0.3000 (  1565 PWs)   bands (ev):

    -1.5162   1.9779   2.0797   5.3225   5.5952   8.7458   8.8866   9.1715
    12.0785  12.1775

          k = 0.1000 0.3000-0.5000 (  1560 PWs)   bands (ev):

    -0.1981   0.0299   3.3053   3.5369   6.6750   6.9227  10.0314  10.2869
    10.4140  10.6236

          k = 0.1000-0.5000-0.5000 (  1548 PWs)   bands (ev):

     1.1925   1.2267   1.4444   1.4595   7.9936   8.0373   8.2790   8.2993
    11.7277  11.7557

          k = 0.3000 0.3000 0.3000 (  1556 PWs)   bands (ev):

    -0.8000   2.6411   2.7287   2.8080   6.0979   6.1857   6.2775   9.5747
    13.0009  13.0966

          k = 0.3000 0.3000-0.5000 (  1546 PWs)   bands (ev):

     0.5109   0.7393   3.9041   3.9838   4.2625   4.3411   7.4281   7.6717
    14.1251  14.1894

          k = 0.3000-0.5000-0.5000 (  1564 PWs)   bands (ev):

     1.8941   1.9282   2.1464   2.1612   5.3646   5.4007   5.6258   5.6412
    15.5061  15.5452

          k =-0.5000-0.5000-0.5000 (  1568 PWs)   bands (ev):

     3.2119   3.2426   3.2883   3.3135   3.5593   3.5838   3.6215   3.6574
    19.1011  19.1605

          k =-0.1000-0.1000 0.1000 (  1542 PWs)   bands (ev):

    -2.9577   3.9939   4.0597   4.1177   7.6907   7.7644   7.8301  10.7126
    10.7811  10.8685

          k =-0.1000 0.1000-0.1000 (  1542 PWs)   bands (ev):

    -2.9577   4.0097   4.0592   4.1012   7.7098   7.7639   7.8128  10.7290
    10.7879  10.8443

          k = 0.1000-0.1000-0.1000 (  1542 PWs)   bands (ev):

    -2.9577   4.0027   4.0570   4.1115   7.6991   7.7628   7.8215  10.7210
    10.7840  10.8581

          k =-0.1000-0.1000 0.3000 (  1532 PWs)   bands (ev):

    -2.2358   1.3307   4.6808   4.7933   7.9520   8.1526   8.5481   8.5701
    11.3716  11.8063

          k =-0.1000 0.1000-0.3000 (  1532 PWs)   bands (ev):

    -2.2358   1.3306   4.7108   4.7620   8.0050   8.0967   8.5557   8.5652
    11.3722  11.7984

          k = 0.1000-0.1000-0.3000 (  1532 PWs)   bands (ev):

    -2.2358   1.3305   4.7114   4.7628   7.9949   8.0849   8.5664   8.5758
    11.3698  11.7854

          k = 0.3000-0.1000 0.1000 (  1532 PWs)   bands (ev):

    -2.2344   1.3244   4.7150   4.7672   7.9991   8.0920   8.5579   8.5683
    11.3841  11.7688

          k =-0.3000-0.1000-0.1000 (  1532 PWs)   bands (ev):

    -2.2343   1.3239   4.6946   4.7902   7.9605   8.1312   8.5520   8.5704
    11.3711  11.7354

          k = 0.3000 0.1000-0.1000 (  1532 PWs)   bands (ev):

    -2.2343   1.3241   4.7155   4.7677   7.9984   8.0912   8.5572   8.5674
    11.3866  11.7812

          k =-0.3000 0.1000 0.1000 (  1532 PWs)   bands (ev):

    -2.2344   1.3245   4.6938   4.7896   7.9609   8.1312   8.5522   8.5713
    11.3650  11.7904

          k =-0.1000 0.3000 0.1000 (  1532 PWs)   bands (ev):

    -2.2344   1.3240   4.7339   4.7496   8.0316   8.0581   8.5575   8.5654
    11.3763  11.7198

          k =-0.1000-0.3000-0.1000 (  1532 PWs)   bands (ev):

    -2.2343   1.3236   4.7144   4.7706   7.9955   8.0957   8.5541   8.5655
    11.3866  11.7012

          k = 0.1000 0.3000-0.1000 (  1532 PWs)   bands (ev):

    -2.2344   1.3237   4.7342   4.7492   8.0339   8.0604   8.5595   8.5625
    11.3803  11.6700

          k = 0.1000-0.3000 0.1000 (  1532 PWs)   bands (ev):

    -2.2344   1.3242   4.7131   4.7694   7.9995   8.0998   8.5537   8.5652
    11.3818  11.6822

          k =-0.1000 0.1000 0.5000 (  1556 PWs)   bands (ev):

    -0.9103  -0.6826   5.9118   5.9507   6.2626   6.3011   9.5110   9.5253
    10.2096  10.2241

          k =-0.5000-0.1000 0.1000 (  1556 PWs)   bands (ev):

    -0.8121  -0.7855   5.9753   5.9811   6.2308   6.2396   9.5288   9.5315
    10.1991  10.2045

          k = 0.5000-0.1000-0.1000 (  1556 PWs)   bands (ev):

    -0.8121  -0.7855   5.9692   5.9798   6.2340   6.2456   9.5285   9.5301
    10.1970  10.1998

          k =-0.1000-0.5000 0.1000 (  1556 PWs)   bands (ev):

    -0.8056  -0.7923   5.9776   5.9894   6.2242   6.2363   9.5220   9.5371
    10.1954  10.2068

          k =-0.1000 0.5000-0.1000 (  1556 PWs)   bands (ev):

    -0.8056  -0.7923   5.9738   5.9869   6.2283   6.2392   9.5197   9.5354
    10.1990  10.2090

          k =-0.1000-0.3000 0.3000 (  1565 PWs)   bands (ev):

    -1.5163   2.0004   2.0564   5.3240   5.5953   8.7741   8.8501   9.1783
    12.1348  12.1765

          k =-0.1000 0.3000-0.3000 (  1565 PWs)   bands (ev):

    -1.5163   2.0006   2.0565   5.3228   5.5960   8.7763   8.8536   9.1722
    12.1444  12.1719

          k = 0.1000-0.3000-0.3000 (  1565 PWs)   bands (ev):

    -1.5163   1.9782   2.0799   5.3214   5.5959   8.7415   8.8814   9.1810
    12.0872  12.1587

          k = 0.3000 0.1000-0.3000 (  1565 PWs)   bands (ev):

    -1.5162   2.0198   2.0372   5.3222   5.5961   8.7931   8.8234   9.1880
    12.1268  12.2011

          k =-0.3000-0.1000-0.3000 (  1565 PWs)   bands (ev):

    -1.5161   1.9983   2.0584   5.3247   5.5949   8.7577   8.8422   9.2046
    12.1206  12.1604

          k = 0.3000-0.1000 0.3000 (  1565 PWs)   bands (ev):

    -1.5162   1.9986   2.0587   5.3213   5.5969   8.7648   8.8487   9.1913
    12.1311  12.1648

          k =-0.3000 0.1000 0.3000 (  1565 PWs)   bands (ev):

    -1.5163   2.0200   2.0371   5.3233   5.5955   8.7806   8.8165   9.2074
    12.1194  12.1937

          k = 0.3000-0.3000 0.1000 (  1565 PWs)   bands (ev):

    -1.5149   1.9991   2.0536   5.3233   5.5953   8.7812   8.8560   9.1758
    12.1272  12.1708

          k =-0.3000-0.3000-0.1000 (  1565 PWs)   bands (ev):

    -1.5147   1.9668   2.0862   5.3252   5.5941   8.7358   8.9004   9.1734
    12.0804  12.1724

          k = 0.3000 0.3000-0.1000 (  1565 PWs)   bands (ev):

    -1.5147   1.9670   2.0863   5.3230   5.5955   8.7362   8.9009   9.1756
    12.0802  12.1661

          k =-0.3000 0.3000 0.1000 (  1565 PWs)   bands (ev):

    -1.5149   1.9990   2.0536   5.3256   5.5938   8.7798   8.8548   9.1719
    12.1289  12.1854

          k =-0.1000 0.3000 0.5000 (  1560 PWs)   bands (ev):

    -0.1981   0.0299   3.3057   3.5373   6.6739   6.9217  10.0298  10.2820
    10.4209  10.6262

          k = 0.3000 0.1000 0.5000 (  1560 PWs)   bands (ev):

    -0.1979   0.0301   3.3048   3.5366   6.6755   6.9229  10.0224  10.2814
    10.4191  10.6330

          k = 0.3000-0.1000-0.5000 (  1560 PWs)   bands (ev):

    -0.1979   0.0300   3.3052   3.5370   6.6745   6.9219  10.0210  10.2789
    10.4226  10.6361

          k =-0.5000-0.3000 0.1000 (  1560 PWs)   bands (ev):

    -0.0998  -0.0733   3.4056   3.4328   6.7854   6.8145  10.1530  10.1843
    10.5018  10.5265

          k = 0.5000-0.3000-0.1000 (  1560 PWs)   bands (ev):

    -0.0998  -0.0733   3.4055   3.4326   6.7867   6.8158  10.1310  10.1636
    10.5174  10.5502

          k =-0.1000-0.5000 0.3000 (  1560 PWs)   bands (ev):

    -0.0951  -0.0812   3.4198   3.4315   6.7845   6.8015  10.1535  10.1693
    10.5128  10.5236

          k =-0.1000 0.5000-0.3000 (  1560 PWs)   bands (ev):

    -0.0951  -0.0811   3.4196   3.4313   6.7847   6.8017  10.1617  10.1735
    10.5038  10.5205

          k = 0.3000-0.5000 0.1000 (  1560 PWs)   bands (ev):

    -0.0933  -0.0800   3.4121   3.4265   6.7938   6.8069  10.1483  10.1754
    10.5129  10.5274

          k = 0.3000 0.5000-0.1000 (  1560 PWs)   bands (ev):

    -0.0933  -0.0800   3.4122   3.4266   6.7938   6.8066  10.1381  10.1718
    10.5148  10.5399

          k =-0.5000 0.1000 0.3000 (  1560 PWs)   bands (ev):

    -0.1011  -0.0746   3.4112   3.4385   6.7801   6.8090  10.1270  10.1590
    10.5211  10.5486

          k = 0.5000-0.1000 0.3000 (  1560 PWs)   bands (ev):

    -0.1011  -0.0746   3.4113   3.4386   6.7789   6.8077  10.1446  10.1779
    10.5072  10.5319

          k =-0.5000 0.1000 0.5000 (  1548 PWs)   bands (ev):

     1.1981   1.2310   1.4283   1.4652   8.0031   8.0426   8.2585   8.3024
    11.7317  11.7596

          k =-0.5000 0.5000 0.1000 (  1548 PWs)   bands (ev):

     1.2670   1.2971   1.3562   1.3935   8.0746   8.1150   8.1909   8.2384
    11.8188  11.8342

          k =-0.3000-0.3000 0.3000 (  1556 PWs)   bands (ev):

    -0.8002   2.6576   2.7297   2.7895   6.1189   6.1821   6.2607   9.5767
    13.0196  13.0983

          k =-0.3000 0.3000-0.3000 (  1556 PWs)   bands (ev):

    -0.8003   2.6755   2.7274   2.7733   6.1339   6.1889   6.2391   9.5775
    13.0399  13.0975

          k = 0.3000-0.3000-0.3000 (  1556 PWs)   bands (ev):

    -0.8003   2.6678   2.7255   2.7838   6.1245   6.1869   6.2493   9.5738
    13.0326  13.0970

          k =-0.3000 0.3000 0.5000 (  1546 PWs)   bands (ev):

     0.5107   0.7391   3.9291   3.9669   4.2790   4.3155   7.4285   7.6721
    14.1484  14.1809

          k =-0.5000-0.3000 0.3000 (  1546 PWs)   bands (ev):

     0.6077   0.6342   3.9876   3.9930   4.2504   4.2585   7.5408   7.5699
    14.1826  14.1882

          k = 0.5000-0.3000-0.3000 (  1546 PWs)   bands (ev):

     0.6078   0.6343   3.9801   3.9900   4.2552   4.2660   7.5389   7.5677
    14.1830  14.1864

          k =-0.3000-0.5000 0.3000 (  1546 PWs)   bands (ev):

     0.6138   0.6277   3.9889   4.0000   4.2452   4.2561   7.5480   7.5613
    14.1779  14.1980

          k =-0.3000 0.5000-0.3000 (  1546 PWs)   bands (ev):

     0.6139   0.6278   3.9851   3.9972   4.2489   4.2590   7.5484   7.5618
    14.1732  14.1939

          k =-0.5000 0.3000 0.5000 (  1564 PWs)   bands (ev):

     1.8995   1.9323   2.1301   2.1669   5.3712   5.4054   5.6091   5.6474
    15.5148  15.5485

          k =-0.5000 0.5000 0.3000 (  1564 PWs)   bands (ev):

     1.9676   1.9974   2.0562   2.0933   5.4481   5.4796   5.5406   5.5794
    15.5949  15.6208

     the Fermi energy is     8.0613 ev

!    total energy              =    -157.99803416 Ry
     Harris-Foulkes estimate   =    -157.99803478 Ry
     estimated scf accuracy    <       0.00000091 Ry

     total all-electron energy =     -1942.569162 Ry

     The total energy is the sum of the following terms:

     one-electron contribution =      12.67773226 Ry
     hartree contribution      =       0.02880340 Ry
     xc contribution           =     -10.37006398 Ry
     ewald contribution        =     -21.62280423 Ry
     one-center paw contrib.   =    -138.71027447 Ry
     smearing contrib. (-TS)   =      -0.00142713 Ry

     convergence has been achieved in   8 iterations

     Forces acting on atoms (Ry/au):

     atom    1 type  1   force =     0.00109157    0.00003964    0.00801825
     atom    2 type  2   force =    -0.00340258    0.00616876    0.00800242
     atom    3 type  3   force =     0.00151623   -0.00066269   -0.00962502
     atom    4 type  4   force =     0.00079478   -0.00554571   -0.00639564

     Total force =     0.018623     Total SCF correction =     0.000694


     entering subroutine stress ...

          total   stress  (Ry/bohr**3)                   (kbar)     P=    3.10
   0.00001894  -0.00000376  -0.00000581          2.79     -0.55     -0.85
  -0.00000376   0.00003817   0.00001428         -0.55      5.62      2.10
  -0.00000581   0.00001428   0.00000610         -0.85      2.10      0.90


     Writing output data file template.save

     init_run     :      1.30s CPU      1.34s WALL (       1 calls)
     electrons    :     23.86s CPU     24.57s WALL (       1 calls)
     forces       :      0.16s CPU      0.16s WALL (       1 calls)
     stress       :      0.50s CPU      0.49s WALL (       1 calls)

     Called by init_run:
     wfcinit      :      0.80s CPU      0.84s WALL (       1 calls)
     potinit      :      0.10s CPU      0.11s WALL (       1 calls)

     Called by electrons:
     c_bands      :     18.77s CPU     19.36s WALL (       9 calls)
     sum_band     :      3.88s CPU      3.97s WALL (       9 calls)
     v_of_rho     :      0.15s CPU      0.15s WALL (       9 calls)
     newd         :      0.16s CPU      0.18s WALL (       9 calls)
     PAW_pot      :      0.85s CPU      0.88s WALL (       9 calls)
     mix_rho      :      0.10s CPU      0.10s WALL (       9 calls)

     Called by c_bands:
     init_us_2    :      0.43s CPU      0.46s WALL (    1323 calls)
     cegterg      :     18.12s CPU     18.81s WALL (     567 calls)

     Called by sum_band:
     sum_band:bec :      0.00s CPU      0.01s WALL (     567 calls)
     addusdens    :      0.24s CPU      0.25s WALL (       9 calls)

     Called by *egterg:
     h_psi        :     16.63s CPU     17.23s WALL (    2128 calls)
     s_psi        :      0.31s CPU      0.31s WALL (    2128 calls)
     g_psi        :      0.02s CPU      0.04s WALL (    1498 calls)
     cdiaghg      :      0.65s CPU      0.69s WALL (    2002 calls)

     Called by h_psi:
     h_psi:pot    :     16.58s CPU     17.19s WALL (    2128 calls)
     h_psi:calbec :      0.45s CPU      0.48s WALL (    2128 calls)
     vloc_psi     :     15.79s CPU     16.36s WALL (    2128 calls)
     add_vuspsi   :      0.34s CPU      0.34s WALL (    2128 calls)

     General routines
     calbec       :      0.75s CPU      0.73s WALL (    3010 calls)
     fft          :      0.18s CPU      0.15s WALL (     169 calls)
     ffts         :      0.06s CPU      0.07s WALL (     113 calls)
     fftw         :     18.02s CPU     18.71s WALL (   37642 calls)
     interpolate  :      0.04s CPU      0.03s WALL (      18 calls)
     davcio       :      0.00s CPU      0.00s WALL (      63 calls)

     Parallel routines
     fft_scatter  :      3.74s CPU      3.82s WALL (   37924 calls)

     PWSCF        :    26.86s CPU        27.74s WALL


   This run was terminated on:  15:54:36   9Jun2017            

=------------------------------------------------------------------------------=
   JOB DONE.
=------------------------------------------------------------------------------=
