
     Program PWSCF v.6.0 (svn rev. 13079) starts on  9Jun2017 at 15:55: 2 

     This program is part of the open-source Quantum ESPRESSO suite
     for quantum simulation of materials; please cite
         "P. Giannozzi et al., J. Phys.:Condens. Matter 21 395502 (2009);
          URL http://www.quantum-espresso.org", 
     in publications or presentations arising from this work. More details at
     http://www.quantum-espresso.org/quote

     Parallel version (MPI), running on     4 processors
     R & G space division:  proc/nbgrp/npool/nimage =       4
     Waiting for input...
     Reading input from standard input
Warning: card &IONS ignored
Warning: card ION_DYNAMICS='BFGS', ignored
Warning: card / ignored
Warning: card &CELL ignored
Warning: card CELL_DYNAMICS='BFGS', ignored
Warning: card PRESS = 0.0, ignored
Warning: card CELL_FACTOR = 2.0, ignored
Warning: card / ignored

     Current dimensions of program PWSCF are:
     Max number of different atomic species (ntypx) = 10
     Max number of k-points (npk) =  40000
     Max angular momentum in pseudopotentials (lmaxx) =  3
               file Al.pbe-nl-kjpaw_psl.1.0.0.UPF: wavefunction(s)  3S 3P renormalized
               file Al.pbe-nl-kjpaw_psl.1.0.0.UPF: wavefunction(s)  3S 3P renormalized
               file Al.pbe-nl-kjpaw_psl.1.0.0.UPF: wavefunction(s)  3S 3P renormalized
               file Al.pbe-nl-kjpaw_psl.1.0.0.UPF: wavefunction(s)  3S 3P renormalized

     Subspace diagonalization in iterative solution of the eigenvalue problem:
     a serial algorithm will be used


     Parallelization info
     --------------------
     sticks:   dense  smooth     PW     G-vecs:    dense   smooth      PW
     Min         232     164     49                 5310     3132     527
     Max         234     165     50                 5313     3135     528
     Sum         933     657    197                21247    12533    2109



     bravais-lattice index     =            0
     lattice parameter (alat)  =       7.6300  a.u.
     unit-cell volume          =     444.1949 (a.u.)^3
     number of atoms/cell      =            4
     number of atomic types    =            4
     number of electrons       =        12.00
     number of Kohn-Sham states=           10
     kinetic-energy cutoff     =      35.0000  Ry
     charge density cutoff     =     200.0000  Ry
     convergence threshold     =      1.0E-06
     mixing beta               =       0.3000
     number of iterations used =           10  local-TF  mixing
     Exchange-correlation      =  SLA  PW   PBX  PBC ( 1  4  3  4 0 0)

     celldm(1)=   7.630000  celldm(2)=   0.000000  celldm(3)=   0.000000
     celldm(4)=   0.000000  celldm(5)=   0.000000  celldm(6)=   0.000000

     crystal axes: (cart. coord. in units of alat)
               a(1) = (   1.000000   0.000000   0.000000 )  
               a(2) = (   0.000000   1.000000   0.000000 )  
               a(3) = (   0.000000   0.000000   1.000000 )  

     reciprocal axes: (cart. coord. in units 2 pi/alat)
               b(1) = (  1.000000  0.000000  0.000000 )  
               b(2) = (  0.000000  1.000000  0.000000 )  
               b(3) = (  0.000000  0.000000  1.000000 )  


     PseudoPot. # 1 for Al read from file:
     /home/ben/espresso/pp/Al.pbe-nl-kjpaw_psl.1.0.0.UPF
     MD5 check sum: 339dbea23cf3ab9a065ad45c0f9085d7
     Pseudo is Projector augmented-wave + core cor, Zval =  3.0
     Generated using "atomic" code by A. Dal Corso  v.5.1
     Shape of augmentation charge: PSQ
     Using radial grid of 1135 points,  4 beta functions with: 
                l(1) =   0
                l(2) =   0
                l(3) =   1
                l(4) =   1
     Q(r) pseudized with 0 coefficients 


     PseudoPot. # 2 for Al read from file:
     /home/ben/espresso/pp/Al.pbe-nl-kjpaw_psl.1.0.0.UPF
     MD5 check sum: 339dbea23cf3ab9a065ad45c0f9085d7
     Pseudo is Projector augmented-wave + core cor, Zval =  3.0
     Generated using "atomic" code by A. Dal Corso  v.5.1
     Shape of augmentation charge: PSQ
     Using radial grid of 1135 points,  4 beta functions with: 
                l(1) =   0
                l(2) =   0
                l(3) =   1
                l(4) =   1
     Q(r) pseudized with 0 coefficients 


     PseudoPot. # 3 for Al read from file:
     /home/ben/espresso/pp/Al.pbe-nl-kjpaw_psl.1.0.0.UPF
     MD5 check sum: 339dbea23cf3ab9a065ad45c0f9085d7
     Pseudo is Projector augmented-wave + core cor, Zval =  3.0
     Generated using "atomic" code by A. Dal Corso  v.5.1
     Shape of augmentation charge: PSQ
     Using radial grid of 1135 points,  4 beta functions with: 
                l(1) =   0
                l(2) =   0
                l(3) =   1
                l(4) =   1
     Q(r) pseudized with 0 coefficients 


     PseudoPot. # 4 for Al read from file:
     /home/ben/espresso/pp/Al.pbe-nl-kjpaw_psl.1.0.0.UPF
     MD5 check sum: 339dbea23cf3ab9a065ad45c0f9085d7
     Pseudo is Projector augmented-wave + core cor, Zval =  3.0
     Generated using "atomic" code by A. Dal Corso  v.5.1
     Shape of augmentation charge: PSQ
     Using radial grid of 1135 points,  4 beta functions with: 
                l(1) =   0
                l(2) =   0
                l(3) =   1
                l(4) =   1
     Q(r) pseudized with 0 coefficients 


     atomic species   valence    mass     pseudopotential
        Al1            3.00    26.98200     Al( 1.00)
        Al2            3.00    26.98200     Al( 1.00)
        Al3            3.00    26.98200     Al( 1.00)
        Al4            3.00    26.98200     Al( 1.00)

     No symmetry found



   Cartesian axes

     site n.     atom                  positions (alat units)
         1           Al1 tau(   1) = (   0.9987376   0.0003673   0.0026284  )
         2           Al2 tau(   2) = (   0.5030751   0.4926605   0.0027167  )
         3           Al3 tau(   3) = (   0.4964123   0.0011780   0.5114156  )
         4           Al4 tau(   4) = (   0.9992272   0.5084493   0.5070965  )

     number of k points=    63  Marzari-Vanderbilt smearing, width (Ry)=  0.0200
                       cart. coord. in units 2pi/alat
        k(    1) = (   0.1000000   0.1000000   0.1000000), wk =   0.0320000
        k(    2) = (   0.1000000   0.1000000   0.3000000), wk =   0.0320000
        k(    3) = (   0.1000000   0.1000000  -0.5000000), wk =   0.0320000
        k(    4) = (   0.1000000   0.3000000   0.3000000), wk =   0.0320000
        k(    5) = (   0.1000000   0.3000000  -0.5000000), wk =   0.0320000
        k(    6) = (   0.1000000  -0.5000000  -0.5000000), wk =   0.0320000
        k(    7) = (   0.3000000   0.3000000   0.3000000), wk =   0.0320000
        k(    8) = (   0.3000000   0.3000000  -0.5000000), wk =   0.0320000
        k(    9) = (   0.3000000  -0.5000000  -0.5000000), wk =   0.0320000
        k(   10) = (  -0.5000000  -0.5000000  -0.5000000), wk =   0.0160000
        k(   11) = (  -0.1000000  -0.1000000   0.1000000), wk =   0.0320000
        k(   12) = (  -0.1000000   0.1000000  -0.1000000), wk =   0.0320000
        k(   13) = (   0.1000000  -0.1000000  -0.1000000), wk =   0.0320000
        k(   14) = (  -0.1000000  -0.1000000   0.3000000), wk =   0.0320000
        k(   15) = (  -0.1000000   0.1000000  -0.3000000), wk =   0.0320000
        k(   16) = (   0.1000000  -0.1000000  -0.3000000), wk =   0.0320000
        k(   17) = (   0.3000000  -0.1000000   0.1000000), wk =   0.0320000
        k(   18) = (  -0.3000000  -0.1000000  -0.1000000), wk =   0.0320000
        k(   19) = (   0.3000000   0.1000000  -0.1000000), wk =   0.0320000
        k(   20) = (  -0.3000000   0.1000000   0.1000000), wk =   0.0320000
        k(   21) = (  -0.1000000   0.3000000   0.1000000), wk =   0.0320000
        k(   22) = (  -0.1000000  -0.3000000  -0.1000000), wk =   0.0320000
        k(   23) = (   0.1000000   0.3000000  -0.1000000), wk =   0.0320000
        k(   24) = (   0.1000000  -0.3000000   0.1000000), wk =   0.0320000
        k(   25) = (  -0.1000000   0.1000000   0.5000000), wk =   0.0320000
        k(   26) = (  -0.5000000  -0.1000000   0.1000000), wk =   0.0320000
        k(   27) = (   0.5000000  -0.1000000  -0.1000000), wk =   0.0320000
        k(   28) = (  -0.1000000  -0.5000000   0.1000000), wk =   0.0320000
        k(   29) = (  -0.1000000   0.5000000  -0.1000000), wk =   0.0320000
        k(   30) = (  -0.1000000  -0.3000000   0.3000000), wk =   0.0320000
        k(   31) = (  -0.1000000   0.3000000  -0.3000000), wk =   0.0320000
        k(   32) = (   0.1000000  -0.3000000  -0.3000000), wk =   0.0320000
        k(   33) = (   0.3000000   0.1000000  -0.3000000), wk =   0.0320000
        k(   34) = (  -0.3000000  -0.1000000  -0.3000000), wk =   0.0320000
        k(   35) = (   0.3000000  -0.1000000   0.3000000), wk =   0.0320000
        k(   36) = (  -0.3000000   0.1000000   0.3000000), wk =   0.0320000
        k(   37) = (   0.3000000  -0.3000000   0.1000000), wk =   0.0320000
        k(   38) = (  -0.3000000  -0.3000000  -0.1000000), wk =   0.0320000
        k(   39) = (   0.3000000   0.3000000  -0.1000000), wk =   0.0320000
        k(   40) = (  -0.3000000   0.3000000   0.1000000), wk =   0.0320000
        k(   41) = (  -0.1000000   0.3000000   0.5000000), wk =   0.0320000
        k(   42) = (   0.3000000   0.1000000   0.5000000), wk =   0.0320000
        k(   43) = (   0.3000000  -0.1000000  -0.5000000), wk =   0.0320000
        k(   44) = (  -0.5000000  -0.3000000   0.1000000), wk =   0.0320000
        k(   45) = (   0.5000000  -0.3000000  -0.1000000), wk =   0.0320000
        k(   46) = (  -0.1000000  -0.5000000   0.3000000), wk =   0.0320000
        k(   47) = (  -0.1000000   0.5000000  -0.3000000), wk =   0.0320000
        k(   48) = (   0.3000000  -0.5000000   0.1000000), wk =   0.0320000
        k(   49) = (   0.3000000   0.5000000  -0.1000000), wk =   0.0320000
        k(   50) = (  -0.5000000   0.1000000   0.3000000), wk =   0.0320000
        k(   51) = (   0.5000000  -0.1000000   0.3000000), wk =   0.0320000
        k(   52) = (  -0.5000000   0.1000000   0.5000000), wk =   0.0320000
        k(   53) = (  -0.5000000   0.5000000   0.1000000), wk =   0.0320000
        k(   54) = (  -0.3000000  -0.3000000   0.3000000), wk =   0.0320000
        k(   55) = (  -0.3000000   0.3000000  -0.3000000), wk =   0.0320000
        k(   56) = (   0.3000000  -0.3000000  -0.3000000), wk =   0.0320000
        k(   57) = (  -0.3000000   0.3000000   0.5000000), wk =   0.0320000
        k(   58) = (  -0.5000000  -0.3000000   0.3000000), wk =   0.0320000
        k(   59) = (   0.5000000  -0.3000000  -0.3000000), wk =   0.0320000
        k(   60) = (  -0.3000000  -0.5000000   0.3000000), wk =   0.0320000
        k(   61) = (  -0.3000000   0.5000000  -0.3000000), wk =   0.0320000
        k(   62) = (  -0.5000000   0.3000000   0.5000000), wk =   0.0320000
        k(   63) = (  -0.5000000   0.5000000   0.3000000), wk =   0.0320000

     Dense  grid:    21247 G-vectors     FFT dimensions: (  36,  36,  36)

     Smooth grid:    12533 G-vectors     FFT dimensions: (  30,  30,  30)

     Estimated max dynamical RAM per process >       9.70Mb

     Estimated total allocated dynamical RAM >      38.81Mb

     Initial potential from superposition of free atoms

     starting charge   11.99084, renormalised to   12.00000
     Starting wfc are   16 randomized atomic wfcs
     Checking if some PAW data can be deallocated... 

     total cpu time spent up to now is        2.4 secs

     per-process dynamical memory:    16.8 Mb

     Self-consistent Calculation

     iteration #  1     ecut=    35.00 Ry     beta=0.30
     Davidson diagonalization with overlap
     ethr =  1.00E-02,  avg # of iterations =  3.1

     Threshold (ethr) on eigenvalues was too large:
     Diagonalizing with lowered threshold

     Davidson diagonalization with overlap
     ethr =  1.97E-04,  avg # of iterations =  3.6

     total cpu time spent up to now is        8.9 secs

     total energy              =    -158.00306215 Ry
     Harris-Foulkes estimate   =    -158.00551978 Ry
     estimated scf accuracy    <       0.02311537 Ry

     iteration #  2     ecut=    35.00 Ry     beta=0.30
     Davidson diagonalization with overlap
     ethr =  1.93E-04,  avg # of iterations =  1.4

     total cpu time spent up to now is       13.3 secs

     total energy              =    -157.99859427 Ry
     Harris-Foulkes estimate   =    -158.00321410 Ry
     estimated scf accuracy    <       0.01435238 Ry

     iteration #  3     ecut=    35.00 Ry     beta=0.30
     Davidson diagonalization with overlap
     ethr =  1.20E-04,  avg # of iterations =  1.4

     total cpu time spent up to now is       17.8 secs

     total energy              =    -157.99892083 Ry
     Harris-Foulkes estimate   =    -157.99897504 Ry
     estimated scf accuracy    <       0.00002998 Ry

     iteration #  4     ecut=    35.00 Ry     beta=0.30
     Davidson diagonalization with overlap
     c_bands:  2 eigenvalues not converged
     ethr =  2.50E-07,  avg # of iterations =  7.7

     total cpu time spent up to now is       21.5 secs

     total energy              =    -157.99899335 Ry
     Harris-Foulkes estimate   =    -157.99900646 Ry
     estimated scf accuracy    <       0.00002544 Ry

     iteration #  5     ecut=    35.00 Ry     beta=0.30
     Davidson diagonalization with overlap
     ethr =  2.12E-07,  avg # of iterations =  1.2

     total cpu time spent up to now is       22.7 secs

     total energy              =    -157.99897283 Ry
     Harris-Foulkes estimate   =    -157.99899373 Ry
     estimated scf accuracy    <       0.00001386 Ry

     iteration #  6     ecut=    35.00 Ry     beta=0.30
     Davidson diagonalization with overlap
     ethr =  1.16E-07,  avg # of iterations =  2.1

     total cpu time spent up to now is       24.4 secs

     End of self-consistent calculation

          k = 0.1000 0.1000 0.1000 (  1542 PWs)   bands (ev):

    -2.9550   4.0135   4.0606   4.1052   7.7129   7.7658   7.8162  10.7323
    10.7872  10.8478

          k = 0.1000 0.1000 0.3000 (  1532 PWs)   bands (ev):

    -2.2321   1.3298   4.7091   4.7750   7.9924   8.1096   8.5576   8.5701
    11.3791  11.8045

          k = 0.1000 0.1000-0.5000 (  1556 PWs)   bands (ev):

    -0.8626  -0.7275   5.9461   5.9812   6.2370   6.2724   9.5222   9.5327
    10.2073  10.2178

          k = 0.1000 0.3000 0.3000 (  1565 PWs)   bands (ev):

    -1.5124   2.0008   2.0603   5.3255   5.5969   8.7775   8.8600   9.1746
    12.1319  12.1810

          k = 0.1000 0.3000-0.5000 (  1560 PWs)   bands (ev):

    -0.1501  -0.0148   3.3543   3.4917   6.7271   6.8738  10.0894  10.2429
    10.4531  10.5796

          k = 0.1000-0.5000-0.5000 (  1548 PWs)   bands (ev):

     1.2518   1.2693   1.3984   1.4098   8.0620   8.0845   8.2276   8.2425
    11.7844  11.7980

          k = 0.3000 0.3000 0.3000 (  1556 PWs)   bands (ev):

    -0.7961   2.6789   2.7292   2.7766   6.1356   6.1875   6.2408   9.5751
    13.0451  13.1007

          k = 0.3000 0.3000-0.5000 (  1546 PWs)   bands (ev):

     0.5591   0.6945   3.9592   3.9925   4.2562   4.2892   7.4793   7.6237
    14.1713  14.1958

          k = 0.3000-0.5000-0.5000 (  1564 PWs)   bands (ev):

     1.9537   1.9711   2.1006   2.1118   5.4257   5.4441   5.5776   5.5892
    15.5747  15.5927

          k =-0.5000-0.5000-0.5000 (  1568 PWs)   bands (ev):

     3.2771   3.2914   3.3110   3.3208   3.5524   3.5622   3.5785   3.5956
    19.2182  19.2530

          k =-0.1000-0.1000 0.1000 (  1542 PWs)   bands (ev):

    -2.9550   4.0229   4.0605   4.0954   7.7240   7.7662   7.8056  10.7443
    10.7867  10.8356

          k =-0.1000 0.1000-0.1000 (  1542 PWs)   bands (ev):

    -2.9550   4.0323   4.0603   4.0858   7.7350   7.7659   7.7953  10.7549
    10.7890  10.8224

          k = 0.1000-0.1000-0.1000 (  1542 PWs)   bands (ev):

    -2.9550   4.0277   4.0596   4.0914   7.7289   7.7656   7.8006  10.7495
    10.7877  10.8297

          k =-0.1000-0.1000 0.3000 (  1532 PWs)   bands (ev):

    -2.2321   1.3300   4.7088   4.7747   7.9943   8.1118   8.5557   8.5684
    11.3784  11.8198

          k =-0.1000 0.1000-0.3000 (  1532 PWs)   bands (ev):

    -2.2321   1.3299   4.7264   4.7566   8.0257   8.0795   8.5597   8.5654
    11.3786  11.8147

          k = 0.1000-0.1000-0.3000 (  1532 PWs)   bands (ev):

    -2.2321   1.3299   4.7267   4.7568   8.0221   8.0755   8.5634   8.5691
    11.3778  11.8084

          k = 0.3000-0.1000 0.1000 (  1532 PWs)   bands (ev):

    -2.2316   1.3277   4.7278   4.7585   8.0234   8.0780   8.5605   8.5665
    11.3827  11.8002

          k =-0.3000-0.1000-0.1000 (  1532 PWs)   bands (ev):

    -2.2316   1.3276   4.7156   4.7716   8.0009   8.1008   8.5575   8.5682
    11.3784  11.7808

          k = 0.3000 0.1000-0.1000 (  1532 PWs)   bands (ev):

    -2.2316   1.3276   4.7280   4.7586   8.0232   8.0777   8.5602   8.5662
    11.3836  11.8070

          k =-0.3000 0.1000 0.1000 (  1532 PWs)   bands (ev):

    -2.2316   1.3278   4.7154   4.7714   8.0009   8.1008   8.5576   8.5684
    11.3761  11.8122

          k =-0.1000 0.3000 0.1000 (  1532 PWs)   bands (ev):

    -2.2316   1.3276   4.7390   4.7478   8.0428   8.0581   8.5614   8.5645
    11.3801  11.7712

          k =-0.1000-0.3000-0.1000 (  1532 PWs)   bands (ev):

    -2.2316   1.3274   4.7273   4.7600   8.0215   8.0800   8.5592   8.5654
    11.3837  11.7620

          k = 0.1000 0.3000-0.1000 (  1532 PWs)   bands (ev):

    -2.2316   1.3275   4.7391   4.7477   8.0436   8.0589   8.5619   8.5636
    11.3816  11.7427

          k = 0.1000-0.3000 0.1000 (  1532 PWs)   bands (ev):

    -2.2316   1.3276   4.7269   4.7596   8.0229   8.0814   8.5591   8.5653
    11.3820  11.7510

          k =-0.1000 0.1000 0.5000 (  1556 PWs)   bands (ev):

    -0.8626  -0.7275   5.9572   5.9737   6.2443   6.2607   9.5265   9.5317
    10.2088  10.2137

          k =-0.5000-0.1000 0.1000 (  1556 PWs)   bands (ev):

    -0.8036  -0.7881   5.9833   5.9854   6.2320   6.2354   9.5331   9.5338
    10.2046  10.2070

          k = 0.5000-0.1000-0.1000 (  1556 PWs)   bands (ev):

    -0.8036  -0.7881   5.9810   5.9850   6.2332   6.2375   9.5328   9.5335
    10.2041  10.2052

          k =-0.1000-0.5000 0.1000 (  1556 PWs)   bands (ev):

    -0.7988  -0.7930   5.9842   5.9882   6.2300   6.2339   9.5307   9.5358
    10.2037  10.2074

          k =-0.1000 0.5000-0.1000 (  1556 PWs)   bands (ev):

    -0.7988  -0.7930   5.9830   5.9872   6.2313   6.2350   9.5299   9.5351
    10.2049  10.2082

          k =-0.1000-0.3000 0.3000 (  1565 PWs)   bands (ev):

    -1.5124   2.0141   2.0467   5.3260   5.5969   8.7949   8.8398   9.1769
    12.1605  12.1840

          k =-0.1000 0.3000-0.3000 (  1565 PWs)   bands (ev):

    -1.5124   2.0141   2.0467   5.3256   5.5971   8.7958   8.8409   9.1748
    12.1653  12.1810

          k = 0.1000-0.3000-0.3000 (  1565 PWs)   bands (ev):

    -1.5124   2.0008   2.0603   5.3251   5.5971   8.7760   8.8583   9.1778
    12.1373  12.1727

          k = 0.3000 0.1000-0.3000 (  1565 PWs)   bands (ev):

    -1.5124   2.0256   2.0352   5.3254   5.5972   8.8086   8.8233   9.1804
    12.1515  12.2078

          k =-0.3000-0.1000-0.3000 (  1565 PWs)   bands (ev):

    -1.5123   2.0129   2.0478   5.3262   5.5968   8.7887   8.8373   9.1864
    12.1505  12.1822

          k = 0.3000-0.1000 0.3000 (  1565 PWs)   bands (ev):

    -1.5124   2.0130   2.0479   5.3251   5.5974   8.7912   8.8397   9.1816
    12.1566  12.1823

          k =-0.3000 0.1000 0.3000 (  1565 PWs)   bands (ev):

    -1.5124   2.0257   2.0352   5.3258   5.5969   8.8042   8.8206   9.1876
    12.1505  12.2062

          k = 0.3000-0.3000 0.1000 (  1565 PWs)   bands (ev):

    -1.5119   2.0136   2.0457   5.3258   5.5969   8.7975   8.8417   9.1761
    12.1567  12.1831

          k =-0.3000-0.3000-0.1000 (  1565 PWs)   bands (ev):

    -1.5118   1.9947   2.0647   5.3264   5.5965   8.7711   8.8678   9.1753
    12.1347  12.1734

          k = 0.3000 0.3000-0.1000 (  1565 PWs)   bands (ev):

    -1.5118   1.9948   2.0647   5.3257   5.5969   8.7712   8.8680   9.1760
    12.1366  12.1692

          k =-0.3000 0.3000 0.1000 (  1565 PWs)   bands (ev):

    -1.5119   2.0136   2.0457   5.3266   5.5964   8.7971   8.8413   9.1748
    12.1559  12.1892

          k =-0.1000 0.3000 0.5000 (  1560 PWs)   bands (ev):

    -0.1501  -0.0149   3.3544   3.4918   6.7267   6.8734  10.0888  10.2417
    10.4549  10.5807

          k = 0.3000 0.1000 0.5000 (  1560 PWs)   bands (ev):

    -0.1500  -0.0148   3.3541   3.4915   6.7273   6.8739  10.0863  10.2402
    10.4557  10.5829

          k = 0.3000-0.1000-0.5000 (  1560 PWs)   bands (ev):

    -0.1500  -0.0148   3.3542   3.4917   6.7269   6.8735  10.0857  10.2394
    10.4569  10.5840

          k =-0.5000-0.3000 0.1000 (  1560 PWs)   bands (ev):

    -0.0911  -0.0755   3.4143   3.4302   6.7924   6.8093  10.1601  10.1780
    10.5079  10.5225

          k = 0.5000-0.3000-0.1000 (  1560 PWs)   bands (ev):

    -0.0911  -0.0755   3.4143   3.4302   6.7928   6.8098  10.1524  10.1706
    10.5139  10.5306

          k =-0.1000-0.5000 0.3000 (  1560 PWs)   bands (ev):

    -0.0868  -0.0809   3.4218   3.4273   6.7949   6.8019  10.1632  10.1700
    10.5140  10.5190

          k =-0.1000 0.5000-0.3000 (  1560 PWs)   bands (ev):

    -0.0868  -0.0809   3.4218   3.4272   6.7950   6.8019  10.1658  10.1716
    10.5111  10.5178

          k = 0.3000-0.5000 0.1000 (  1560 PWs)   bands (ev):

    -0.0862  -0.0805   3.4192   3.4254   6.7980   6.8039  10.1616  10.1718
    10.5142  10.5204

          k = 0.3000 0.5000-0.1000 (  1560 PWs)   bands (ev):

    -0.0863  -0.0805   3.4193   3.4254   6.7980   6.8038  10.1579  10.1704
    10.5151  10.5247

          k =-0.5000 0.1000 0.3000 (  1560 PWs)   bands (ev):

    -0.0915  -0.0760   3.4163   3.4322   6.7905   6.8074  10.1510  10.1690
    10.5148  10.5302

          k = 0.5000-0.1000 0.3000 (  1560 PWs)   bands (ev):

    -0.0916  -0.0760   3.4164   3.4323   6.7900   6.8069  10.1573  10.1757
    10.5098  10.5243

          k =-0.5000 0.1000 0.5000 (  1548 PWs)   bands (ev):

     1.2538   1.2731   1.3904   1.4117   8.0661   8.0893   8.2175   8.2429
    11.7842  11.8009

          k =-0.5000 0.5000 0.1000 (  1548 PWs)   bands (ev):

     1.2952   1.3136   1.3480   1.3691   8.1078   8.1322   8.1766   8.2036
    11.8410  11.8468

          k =-0.3000-0.3000 0.3000 (  1556 PWs)   bands (ev):

    -0.7962   2.6887   2.7296   2.7661   6.1473   6.1863   6.2305   9.5758
    13.0570  13.1011

          k =-0.3000 0.3000-0.3000 (  1556 PWs)   bands (ev):

    -0.7962   2.6991   2.7287   2.7563   6.1570   6.1885   6.2186   9.5761
    13.0686  13.1024

          k = 0.3000-0.3000-0.3000 (  1556 PWs)   bands (ev):

    -0.7962   2.6942   2.7281   2.7621   6.1514   6.1880   6.2244   9.5748
    13.0627  13.1005

          k =-0.3000 0.3000 0.5000 (  1546 PWs)   bands (ev):

     0.5590   0.6945   3.9704   3.9861   4.2625   4.2778   7.4795   7.6238
    14.1806  14.1928

          k =-0.5000-0.3000 0.3000 (  1546 PWs)   bands (ev):

     0.6176   0.6332   3.9941   3.9961   4.2516   4.2547   7.5450   7.5618
    14.1937  14.1954

          k = 0.5000-0.3000-0.3000 (  1546 PWs)   bands (ev):

     0.6176   0.6332   3.9914   3.9950   4.2533   4.2574   7.5443   7.5611
    14.1938  14.1956

          k =-0.3000-0.5000 0.3000 (  1546 PWs)   bands (ev):

     0.6223   0.6283   3.9947   3.9984   4.2501   4.2536   7.5502   7.5561
    14.1965  14.6021

          k =-0.3000 0.5000-0.3000 (  1546 PWs)   bands (ev):

     0.6223   0.6283   3.9934   3.9974   4.2513   4.2547   7.5503   7.5563
    14.1904  14.1973

          k =-0.5000 0.3000 0.5000 (  1564 PWs)   bands (ev):

     1.9556   1.9749   2.0925   2.1138   5.4281   5.4481   5.5693   5.5914
    15.5766  15.5972

          k =-0.5000 0.5000 0.3000 (  1564 PWs)   bands (ev):

     1.9969   2.0152   2.0494   2.0703   5.4728   5.4920   5.5277   5.5496
    15.6224  15.6391

     the Fermi energy is     8.0704 ev

!    total energy              =    -157.99897608 Ry
     Harris-Foulkes estimate   =    -157.99897632 Ry
     estimated scf accuracy    <       0.00000026 Ry

     total all-electron energy =     -1942.570104 Ry

     The total energy is the sum of the following terms:

     one-electron contribution =      12.68402120 Ry
     hartree contribution      =       0.02557046 Ry
     xc contribution           =     -10.36852566 Ry
     ewald contribution        =     -21.62911323 Ry
     one-center paw contrib.   =    -138.70926487 Ry
     smearing contrib. (-TS)   =      -0.00166398 Ry

     convergence has been achieved in   6 iterations

     Forces acting on atoms (Ry/au):

     atom    1 type  1   force =     0.00062231    0.00001228    0.00453394
     atom    2 type  2   force =    -0.00192406    0.00346489    0.00450198
     atom    3 type  3   force =     0.00085907   -0.00033908   -0.00542937
     atom    4 type  4   force =     0.00044269   -0.00313809   -0.00360655

     Total force =     0.010502     Total SCF correction =     0.000223


     entering subroutine stress ...

          total   stress  (Ry/bohr**3)                   (kbar)     P=    1.57
   0.00001008  -0.00000131  -0.00000199          1.48     -0.19     -0.29
  -0.00000131   0.00001679   0.00000494         -0.19      2.47      0.73
  -0.00000199   0.00000494   0.00000522         -0.29      0.73      0.77


     Writing output data file template.save

     init_run     :      1.41s CPU      1.42s WALL (       1 calls)
     electrons    :     21.52s CPU     21.91s WALL (       1 calls)
     forces       :      0.19s CPU      0.19s WALL (       1 calls)
     stress       :      0.55s CPU      0.55s WALL (       1 calls)

     Called by init_run:
     wfcinit      :      0.88s CPU      0.89s WALL (       1 calls)
     potinit      :      0.10s CPU      0.11s WALL (       1 calls)

     Called by electrons:
     c_bands      :     16.82s CPU     17.14s WALL (       7 calls)
     sum_band     :      3.48s CPU      3.53s WALL (       7 calls)
     v_of_rho     :      0.16s CPU      0.16s WALL (       7 calls)
     newd         :      0.16s CPU      0.16s WALL (       7 calls)
     PAW_pot      :      0.88s CPU      0.89s WALL (       7 calls)
     mix_rho      :      0.10s CPU      0.10s WALL (       7 calls)

     Called by c_bands:
     init_us_2    :      0.44s CPU      0.41s WALL (    1071 calls)
     cegterg      :     16.30s CPU     16.64s WALL (     441 calls)

     Called by sum_band:
     sum_band:bec :      0.02s CPU      0.01s WALL (     441 calls)
     addusdens    :      0.22s CPU      0.23s WALL (       7 calls)

     Called by *egterg:
     h_psi        :     14.97s CPU     15.33s WALL (    1798 calls)
     s_psi        :      0.27s CPU      0.30s WALL (    1798 calls)
     g_psi        :      0.06s CPU      0.04s WALL (    1294 calls)
     cdiaghg      :      0.58s CPU      0.59s WALL (    1672 calls)

     Called by h_psi:
     h_psi:pot    :     14.92s CPU     15.30s WALL (    1798 calls)
     h_psi:calbec :      0.40s CPU      0.41s WALL (    1798 calls)
     vloc_psi     :     14.23s CPU     14.55s WALL (    1798 calls)
     add_vuspsi   :      0.28s CPU      0.33s WALL (    1798 calls)

     General routines
     calbec       :      0.65s CPU      0.65s WALL (    2554 calls)
     fft          :      0.17s CPU      0.17s WALL (     137 calls)
     ffts         :      0.06s CPU      0.07s WALL (      79 calls)
     fftw         :     16.22s CPU     16.64s WALL (   30466 calls)
     interpolate  :      0.03s CPU      0.03s WALL (      14 calls)
     davcio       :      0.00s CPU      0.00s WALL (      63 calls)

     Parallel routines
     fft_scatter  :      2.98s CPU      3.00s WALL (   30682 calls)

     PWSCF        :    24.79s CPU        25.33s WALL


   This run was terminated on:  15:55:28   9Jun2017            

=------------------------------------------------------------------------------=
   JOB DONE.
=------------------------------------------------------------------------------=
