
     Program PWSCF v.6.0 (svn rev. 13079) starts on  9Jun2017 at 15:55:57 

     This program is part of the open-source Quantum ESPRESSO suite
     for quantum simulation of materials; please cite
         "P. Giannozzi et al., J. Phys.:Condens. Matter 21 395502 (2009);
          URL http://www.quantum-espresso.org", 
     in publications or presentations arising from this work. More details at
     http://www.quantum-espresso.org/quote

     Parallel version (MPI), running on     4 processors
     R & G space division:  proc/nbgrp/npool/nimage =       4
     Waiting for input...
     Reading input from standard input
Warning: card &IONS ignored
Warning: card ION_DYNAMICS='BFGS', ignored
Warning: card / ignored
Warning: card &CELL ignored
Warning: card CELL_DYNAMICS='BFGS', ignored
Warning: card PRESS = 0.0, ignored
Warning: card CELL_FACTOR = 2.0, ignored
Warning: card / ignored

     Current dimensions of program PWSCF are:
     Max number of different atomic species (ntypx) = 10
     Max number of k-points (npk) =  40000
     Max angular momentum in pseudopotentials (lmaxx) =  3
               file Al.pbe-nl-kjpaw_psl.1.0.0.UPF: wavefunction(s)  3S 3P renormalized
               file Al.pbe-nl-kjpaw_psl.1.0.0.UPF: wavefunction(s)  3S 3P renormalized
               file Al.pbe-nl-kjpaw_psl.1.0.0.UPF: wavefunction(s)  3S 3P renormalized
               file Al.pbe-nl-kjpaw_psl.1.0.0.UPF: wavefunction(s)  3S 3P renormalized

     Subspace diagonalization in iterative solution of the eigenvalue problem:
     a serial algorithm will be used


     Parallelization info
     --------------------
     sticks:   dense  smooth     PW     G-vecs:    dense   smooth      PW
     Min         232     164     49                 5310     3132     527
     Max         234     165     50                 5313     3135     528
     Sum         933     657    197                21247    12533    2109



     bravais-lattice index     =            0
     lattice parameter (alat)  =       7.6300  a.u.
     unit-cell volume          =     444.1949 (a.u.)^3
     number of atoms/cell      =            4
     number of atomic types    =            4
     number of electrons       =        12.00
     number of Kohn-Sham states=           10
     kinetic-energy cutoff     =      35.0000  Ry
     charge density cutoff     =     200.0000  Ry
     convergence threshold     =      1.0E-06
     mixing beta               =       0.3000
     number of iterations used =           10  local-TF  mixing
     Exchange-correlation      =  SLA  PW   PBX  PBC ( 1  4  3  4 0 0)

     celldm(1)=   7.630000  celldm(2)=   0.000000  celldm(3)=   0.000000
     celldm(4)=   0.000000  celldm(5)=   0.000000  celldm(6)=   0.000000

     crystal axes: (cart. coord. in units of alat)
               a(1) = (   1.000000   0.000000   0.000000 )  
               a(2) = (   0.000000   1.000000   0.000000 )  
               a(3) = (   0.000000   0.000000   1.000000 )  

     reciprocal axes: (cart. coord. in units 2 pi/alat)
               b(1) = (  1.000000  0.000000  0.000000 )  
               b(2) = (  0.000000  1.000000  0.000000 )  
               b(3) = (  0.000000  0.000000  1.000000 )  


     PseudoPot. # 1 for Al read from file:
     /home/ben/espresso/pp/Al.pbe-nl-kjpaw_psl.1.0.0.UPF
     MD5 check sum: 339dbea23cf3ab9a065ad45c0f9085d7
     Pseudo is Projector augmented-wave + core cor, Zval =  3.0
     Generated using "atomic" code by A. Dal Corso  v.5.1
     Shape of augmentation charge: PSQ
     Using radial grid of 1135 points,  4 beta functions with: 
                l(1) =   0
                l(2) =   0
                l(3) =   1
                l(4) =   1
     Q(r) pseudized with 0 coefficients 


     PseudoPot. # 2 for Al read from file:
     /home/ben/espresso/pp/Al.pbe-nl-kjpaw_psl.1.0.0.UPF
     MD5 check sum: 339dbea23cf3ab9a065ad45c0f9085d7
     Pseudo is Projector augmented-wave + core cor, Zval =  3.0
     Generated using "atomic" code by A. Dal Corso  v.5.1
     Shape of augmentation charge: PSQ
     Using radial grid of 1135 points,  4 beta functions with: 
                l(1) =   0
                l(2) =   0
                l(3) =   1
                l(4) =   1
     Q(r) pseudized with 0 coefficients 


     PseudoPot. # 3 for Al read from file:
     /home/ben/espresso/pp/Al.pbe-nl-kjpaw_psl.1.0.0.UPF
     MD5 check sum: 339dbea23cf3ab9a065ad45c0f9085d7
     Pseudo is Projector augmented-wave + core cor, Zval =  3.0
     Generated using "atomic" code by A. Dal Corso  v.5.1
     Shape of augmentation charge: PSQ
     Using radial grid of 1135 points,  4 beta functions with: 
                l(1) =   0
                l(2) =   0
                l(3) =   1
                l(4) =   1
     Q(r) pseudized with 0 coefficients 


     PseudoPot. # 4 for Al read from file:
     /home/ben/espresso/pp/Al.pbe-nl-kjpaw_psl.1.0.0.UPF
     MD5 check sum: 339dbea23cf3ab9a065ad45c0f9085d7
     Pseudo is Projector augmented-wave + core cor, Zval =  3.0
     Generated using "atomic" code by A. Dal Corso  v.5.1
     Shape of augmentation charge: PSQ
     Using radial grid of 1135 points,  4 beta functions with: 
                l(1) =   0
                l(2) =   0
                l(3) =   1
                l(4) =   1
     Q(r) pseudized with 0 coefficients 


     atomic species   valence    mass     pseudopotential
        Al1            3.00    26.98200     Al( 1.00)
        Al2            3.00    26.98200     Al( 1.00)
        Al3            3.00    26.98200     Al( 1.00)
        Al4            3.00    26.98200     Al( 1.00)

     No symmetry found



   Cartesian axes

     site n.     atom                  positions (alat units)
         1           Al1 tau(   1) = (   0.9980828   0.0005579   0.0039916  )
         2           Al2 tau(   2) = (   0.5046701   0.4888538   0.0041257  )
         3           Al3 tau(   3) = (   0.4945515   0.0017891   0.5173364  )
         4           Al4 tau(   4) = (   0.9988264   0.5128316   0.5107771  )

     number of k points=    63  Marzari-Vanderbilt smearing, width (Ry)=  0.0200
                       cart. coord. in units 2pi/alat
        k(    1) = (   0.1000000   0.1000000   0.1000000), wk =   0.0320000
        k(    2) = (   0.1000000   0.1000000   0.3000000), wk =   0.0320000
        k(    3) = (   0.1000000   0.1000000  -0.5000000), wk =   0.0320000
        k(    4) = (   0.1000000   0.3000000   0.3000000), wk =   0.0320000
        k(    5) = (   0.1000000   0.3000000  -0.5000000), wk =   0.0320000
        k(    6) = (   0.1000000  -0.5000000  -0.5000000), wk =   0.0320000
        k(    7) = (   0.3000000   0.3000000   0.3000000), wk =   0.0320000
        k(    8) = (   0.3000000   0.3000000  -0.5000000), wk =   0.0320000
        k(    9) = (   0.3000000  -0.5000000  -0.5000000), wk =   0.0320000
        k(   10) = (  -0.5000000  -0.5000000  -0.5000000), wk =   0.0160000
        k(   11) = (  -0.1000000  -0.1000000   0.1000000), wk =   0.0320000
        k(   12) = (  -0.1000000   0.1000000  -0.1000000), wk =   0.0320000
        k(   13) = (   0.1000000  -0.1000000  -0.1000000), wk =   0.0320000
        k(   14) = (  -0.1000000  -0.1000000   0.3000000), wk =   0.0320000
        k(   15) = (  -0.1000000   0.1000000  -0.3000000), wk =   0.0320000
        k(   16) = (   0.1000000  -0.1000000  -0.3000000), wk =   0.0320000
        k(   17) = (   0.3000000  -0.1000000   0.1000000), wk =   0.0320000
        k(   18) = (  -0.3000000  -0.1000000  -0.1000000), wk =   0.0320000
        k(   19) = (   0.3000000   0.1000000  -0.1000000), wk =   0.0320000
        k(   20) = (  -0.3000000   0.1000000   0.1000000), wk =   0.0320000
        k(   21) = (  -0.1000000   0.3000000   0.1000000), wk =   0.0320000
        k(   22) = (  -0.1000000  -0.3000000  -0.1000000), wk =   0.0320000
        k(   23) = (   0.1000000   0.3000000  -0.1000000), wk =   0.0320000
        k(   24) = (   0.1000000  -0.3000000   0.1000000), wk =   0.0320000
        k(   25) = (  -0.1000000   0.1000000   0.5000000), wk =   0.0320000
        k(   26) = (  -0.5000000  -0.1000000   0.1000000), wk =   0.0320000
        k(   27) = (   0.5000000  -0.1000000  -0.1000000), wk =   0.0320000
        k(   28) = (  -0.1000000  -0.5000000   0.1000000), wk =   0.0320000
        k(   29) = (  -0.1000000   0.5000000  -0.1000000), wk =   0.0320000
        k(   30) = (  -0.1000000  -0.3000000   0.3000000), wk =   0.0320000
        k(   31) = (  -0.1000000   0.3000000  -0.3000000), wk =   0.0320000
        k(   32) = (   0.1000000  -0.3000000  -0.3000000), wk =   0.0320000
        k(   33) = (   0.3000000   0.1000000  -0.3000000), wk =   0.0320000
        k(   34) = (  -0.3000000  -0.1000000  -0.3000000), wk =   0.0320000
        k(   35) = (   0.3000000  -0.1000000   0.3000000), wk =   0.0320000
        k(   36) = (  -0.3000000   0.1000000   0.3000000), wk =   0.0320000
        k(   37) = (   0.3000000  -0.3000000   0.1000000), wk =   0.0320000
        k(   38) = (  -0.3000000  -0.3000000  -0.1000000), wk =   0.0320000
        k(   39) = (   0.3000000   0.3000000  -0.1000000), wk =   0.0320000
        k(   40) = (  -0.3000000   0.3000000   0.1000000), wk =   0.0320000
        k(   41) = (  -0.1000000   0.3000000   0.5000000), wk =   0.0320000
        k(   42) = (   0.3000000   0.1000000   0.5000000), wk =   0.0320000
        k(   43) = (   0.3000000  -0.1000000  -0.5000000), wk =   0.0320000
        k(   44) = (  -0.5000000  -0.3000000   0.1000000), wk =   0.0320000
        k(   45) = (   0.5000000  -0.3000000  -0.1000000), wk =   0.0320000
        k(   46) = (  -0.1000000  -0.5000000   0.3000000), wk =   0.0320000
        k(   47) = (  -0.1000000   0.5000000  -0.3000000), wk =   0.0320000
        k(   48) = (   0.3000000  -0.5000000   0.1000000), wk =   0.0320000
        k(   49) = (   0.3000000   0.5000000  -0.1000000), wk =   0.0320000
        k(   50) = (  -0.5000000   0.1000000   0.3000000), wk =   0.0320000
        k(   51) = (   0.5000000  -0.1000000   0.3000000), wk =   0.0320000
        k(   52) = (  -0.5000000   0.1000000   0.5000000), wk =   0.0320000
        k(   53) = (  -0.5000000   0.5000000   0.1000000), wk =   0.0320000
        k(   54) = (  -0.3000000  -0.3000000   0.3000000), wk =   0.0320000
        k(   55) = (  -0.3000000   0.3000000  -0.3000000), wk =   0.0320000
        k(   56) = (   0.3000000  -0.3000000  -0.3000000), wk =   0.0320000
        k(   57) = (  -0.3000000   0.3000000   0.5000000), wk =   0.0320000
        k(   58) = (  -0.5000000  -0.3000000   0.3000000), wk =   0.0320000
        k(   59) = (   0.5000000  -0.3000000  -0.3000000), wk =   0.0320000
        k(   60) = (  -0.3000000  -0.5000000   0.3000000), wk =   0.0320000
        k(   61) = (  -0.3000000   0.5000000  -0.3000000), wk =   0.0320000
        k(   62) = (  -0.5000000   0.3000000   0.5000000), wk =   0.0320000
        k(   63) = (  -0.5000000   0.5000000   0.3000000), wk =   0.0320000

     Dense  grid:    21247 G-vectors     FFT dimensions: (  36,  36,  36)

     Smooth grid:    12533 G-vectors     FFT dimensions: (  30,  30,  30)

     Estimated max dynamical RAM per process >       9.70Mb

     Estimated total allocated dynamical RAM >      38.81Mb

     Initial potential from superposition of free atoms

     starting charge   11.99084, renormalised to   12.00000
     Starting wfc are   16 randomized atomic wfcs
     Checking if some PAW data can be deallocated... 

     total cpu time spent up to now is        2.3 secs

     per-process dynamical memory:    16.9 Mb

     Self-consistent Calculation

     iteration #  1     ecut=    35.00 Ry     beta=0.30
     Davidson diagonalization with overlap
     ethr =  1.00E-02,  avg # of iterations =  3.1

     Threshold (ethr) on eigenvalues was too large:
     Diagonalizing with lowered threshold

     Davidson diagonalization with overlap
     ethr =  2.01E-04,  avg # of iterations =  4.0

     total cpu time spent up to now is        7.3 secs

     total energy              =    -158.00250403 Ry
     Harris-Foulkes estimate   =    -158.00503835 Ry
     estimated scf accuracy    <       0.02363181 Ry

     iteration #  2     ecut=    35.00 Ry     beta=0.30
     Davidson diagonalization with overlap
     ethr =  1.97E-04,  avg # of iterations =  1.2

     total cpu time spent up to now is       11.7 secs

     total energy              =    -157.99788355 Ry
     Harris-Foulkes estimate   =    -158.00266379 Ry
     estimated scf accuracy    <       0.01465644 Ry

     iteration #  3     ecut=    35.00 Ry     beta=0.30
     Davidson diagonalization with overlap
     ethr =  1.22E-04,  avg # of iterations =  1.4

     total cpu time spent up to now is       16.3 secs

     total energy              =    -157.99827898 Ry
     Harris-Foulkes estimate   =    -157.99833070 Ry
     estimated scf accuracy    <       0.00003304 Ry

     iteration #  4     ecut=    35.00 Ry     beta=0.30
     Davidson diagonalization with overlap
     c_bands:  2 eigenvalues not converged
     ethr =  2.75E-07,  avg # of iterations =  7.5

     total cpu time spent up to now is       21.3 secs

     total energy              =    -157.99837296 Ry
     Harris-Foulkes estimate   =    -157.99837921 Ry
     estimated scf accuracy    <       0.00003978 Ry

     iteration #  5     ecut=    35.00 Ry     beta=0.30
     Davidson diagonalization with overlap
     ethr =  2.75E-07,  avg # of iterations =  1.2

     total cpu time spent up to now is       22.6 secs

     total energy              =    -157.99833344 Ry
     Harris-Foulkes estimate   =    -157.99837310 Ry
     estimated scf accuracy    <       0.00003153 Ry

     iteration #  6     ecut=    35.00 Ry     beta=0.30
     Davidson diagonalization with overlap
     ethr =  2.63E-07,  avg # of iterations =  2.2

     total cpu time spent up to now is       24.3 secs

     total energy              =    -157.99834188 Ry
     Harris-Foulkes estimate   =    -157.99834237 Ry
     estimated scf accuracy    <       0.00000187 Ry

     iteration #  7     ecut=    35.00 Ry     beta=0.30
     Davidson diagonalization with overlap
     ethr =  1.56E-08,  avg # of iterations =  1.3

     total cpu time spent up to now is       25.8 secs

     End of self-consistent calculation

          k = 0.1000 0.1000 0.1000 (  1542 PWs)   bands (ev):

    -2.9567   3.9877   4.0604   4.1273   7.6828   7.7644   7.8400  10.7028
    10.7843  10.8787

          k = 0.1000 0.1000 0.3000 (  1532 PWs)   bands (ev):

    -2.2345   1.3305   4.6891   4.7895   7.9590   8.1367   8.5547   8.5740
    11.3755  11.7825

          k = 0.1000 0.1000-0.5000 (  1556 PWs)   bands (ev):

    -0.8988  -0.6928   5.9034   5.9732   6.2425   6.3130   9.5057   9.5296
    10.2072  10.2308

          k = 0.1000 0.3000 0.3000 (  1565 PWs)   bands (ev):

    -1.5149   1.9842   2.0749   5.3235   5.5961   8.7545   8.8800   9.1726
    12.0935  12.1785

          k = 0.1000 0.3000-0.5000 (  1560 PWs)   bands (ev):

    -0.1864   0.0197   3.3172   3.5266   6.6878   6.9113  10.0460  10.2776
    10.4226  10.6136

          k = 0.1000-0.5000-0.5000 (  1548 PWs)   bands (ev):

     1.2073   1.2367   1.4336   1.4482   8.0111   8.0487   8.2667   8.2860
    11.7418  11.7657

          k = 0.3000 0.3000 0.3000 (  1556 PWs)   bands (ev):

    -0.7987   2.6513   2.7290   2.8002   6.1081   6.1864   6.2683   9.5751
    13.0130  13.0981

          k = 0.3000 0.3000-0.5000 (  1546 PWs)   bands (ev):

     0.5226   0.7291   3.9189   3.9862   4.2614   4.3277   7.4407   7.6607
    14.1383  14.1913

          k = 0.3000-0.5000-0.5000 (  1564 PWs)   bands (ev):

     1.9091   1.9384   2.1357   2.1500   5.3800   5.4110   5.6144   5.6293
    15.5235  15.5567

          k =-0.5000-0.5000-0.5000 (  1568 PWs)   bands (ev):

     3.2294   3.2556   3.2944   3.3154   3.5580   3.5785   3.6105   3.6417
    19.1318  19.1840

          k =-0.1000-0.1000 0.1000 (  1542 PWs)   bands (ev):

    -2.9567   4.0017   4.0602   4.1122   7.6997   7.7652   7.8242  10.7211
    10.7832  10.8601

          k =-0.1000 0.1000-0.1000 (  1542 PWs)   bands (ev):

    -2.9567   4.0160   4.0597   4.0977   7.7168   7.7646   7.8087  10.7362
    10.7884  10.8389

          k = 0.1000-0.1000-0.1000 (  1542 PWs)   bands (ev):

    -2.9567   4.0095   4.0580   4.1066   7.7073   7.7639   7.8165  10.7287
    10.7855  10.8509

          k =-0.1000-0.1000 0.3000 (  1532 PWs)   bands (ev):

    -2.2346   1.3308   4.6885   4.7888   7.9634   8.1421   8.5504   8.5703
    11.3739  11.8118

          k =-0.1000 0.1000-0.3000 (  1532 PWs)   bands (ev):

    -2.2345   1.3306   4.7152   4.7611   8.0107   8.0924   8.5570   8.5658
    11.3744  11.8035

          k = 0.1000-0.1000-0.3000 (  1532 PWs)   bands (ev):

    -2.2345   1.3306   4.7157   4.7617   8.0027   8.0833   8.5654   8.5741
    11.3724  11.7923

          k = 0.3000-0.1000 0.1000 (  1532 PWs)   bands (ev):

    -2.2334   1.3256   4.7186   4.7653   8.0059   8.0887   8.5588   8.5683
    11.3838  11.7781

          k =-0.3000-0.1000-0.1000 (  1532 PWs)   bands (ev):

    -2.2333   1.3252   4.7003   4.7856   7.9716   8.1236   8.5537   8.5704
    11.3738  11.7482

          k = 0.3000 0.1000-0.1000 (  1532 PWs)   bands (ev):

    -2.2333   1.3254   4.7190   4.7657   8.0053   8.0882   8.5582   8.5675
    11.3859  11.7892

          k =-0.3000 0.1000 0.1000 (  1532 PWs)   bands (ev):

    -2.2334   1.3257   4.6997   4.7851   7.9718   8.1235   8.5539   8.5711
    11.3688  11.7979

          k =-0.1000 0.3000 0.1000 (  1532 PWs)   bands (ev):

    -2.2334   1.3253   4.7355   4.7495   8.0350   8.0586   8.5590   8.5655
    11.3777  11.7339

          k =-0.1000-0.3000-0.1000 (  1532 PWs)   bands (ev):

    -2.2333   1.3249   4.7181   4.7680   8.0028   8.0919   8.5559   8.5659
    11.3859  11.7178

          k = 0.1000 0.3000-0.1000 (  1532 PWs)   bands (ev):

    -2.2333   1.3251   4.7357   4.7491   8.0368   8.0604   8.5604   8.5633
    11.3810  11.6902

          k = 0.1000-0.3000 0.1000 (  1532 PWs)   bands (ev):

    -2.2334   1.3254   4.7171   4.7671   8.0060   8.0951   8.5556   8.5656
    11.3821  11.7017

          k =-0.1000 0.1000 0.5000 (  1556 PWs)   bands (ev):

    -0.8988  -0.6928   5.9241   5.9571   6.2581   6.2907   9.5154   9.5271
    10.2103  10.2219

          k =-0.5000-0.1000 0.1000 (  1556 PWs)   bands (ev):

    -0.8097  -0.7858   5.9779   5.9826   6.2314   6.2387   9.5302   9.5323
    10.2012  10.2060

          k = 0.5000-0.1000-0.1000 (  1556 PWs)   bands (ev):

    -0.8096  -0.7858   5.9729   5.9815   6.2340   6.2435   9.5299   9.5313
    10.1999  10.2020

          k =-0.1000-0.5000 0.1000 (  1556 PWs)   bands (ev):

    -0.8034  -0.7923   5.9797   5.9892   6.2264   6.2358   9.5248   9.5368
    10.1986  10.2075

          k =-0.1000 0.5000-0.1000 (  1556 PWs)   bands (ev):

    -0.8034  -0.7923   5.9769   5.9871   6.2295   6.2383   9.5230   9.5353
    10.2013  10.2093

          k =-0.1000-0.3000 0.3000 (  1565 PWs)   bands (ev):

    -1.5149   2.0043   2.0542   5.3248   5.5961   8.7800   8.8480   9.1779
    12.1432  12.1779

          k =-0.1000 0.3000-0.3000 (  1565 PWs)   bands (ev):

    -1.5150   2.0044   2.0543   5.3238   5.5967   8.7818   8.8507   9.1732
    12.1521  12.1730

          k = 0.1000-0.3000-0.3000 (  1565 PWs)   bands (ev):

    -1.5149   1.9844   2.0751   5.3227   5.5965   8.7511   8.8759   9.1801
    12.1013  12.1630

          k = 0.3000 0.1000-0.3000 (  1565 PWs)   bands (ev):

    -1.5149   2.0216   2.0370   5.3233   5.5968   8.7980   8.8238   9.1858
    12.1345  12.2033

          k =-0.3000-0.1000-0.3000 (  1565 PWs)   bands (ev):

    -1.5148   2.0025   2.0559   5.3253   5.5958   8.7670   8.8417   9.1990
    12.1299  12.1667

          k = 0.3000-0.1000 0.3000 (  1565 PWs)   bands (ev):

    -1.5149   2.0028   2.0561   5.3226   5.5974   8.7726   8.8469   9.1885
    12.1390  12.1692

          k =-0.3000 0.1000 0.3000 (  1565 PWs)   bands (ev):

    -1.5149   2.0218   2.0369   5.3242   5.5963   8.7882   8.8182   9.2013
    12.1292  12.1971

          k = 0.3000-0.3000 0.1000 (  1565 PWs)   bands (ev):

    -1.5138   2.0031   2.0520   5.3242   5.5962   8.7857   8.8527   9.1762
    12.1369  12.1739

          k =-0.3000-0.3000-0.1000 (  1565 PWs)   bands (ev):

    -1.5136   1.9744   2.0809   5.3257   5.5952   8.7454   8.8923   9.1743
    12.0952  12.1727

          k = 0.3000 0.3000-0.1000 (  1565 PWs)   bands (ev):

    -1.5137   1.9745   2.0811   5.3240   5.5962   8.7457   8.8927   9.1760
    12.0957  12.1674

          k =-0.3000 0.3000 0.1000 (  1565 PWs)   bands (ev):

    -1.5138   2.0031   2.0519   5.3260   5.5949   8.7847   8.8517   9.1731
    12.1373  12.1859

          k =-0.1000 0.3000 0.5000 (  1560 PWs)   bands (ev):

    -0.1865   0.0197   3.3175   3.5269   6.6870   6.9105  10.0447  10.2741
    10.4276  10.6157

          k = 0.3000 0.1000 0.5000 (  1560 PWs)   bands (ev):

    -0.1863   0.0198   3.3168   3.5263   6.6882   6.9115  10.0389  10.2726
    10.4272  10.6210

          k = 0.3000-0.1000-0.5000 (  1560 PWs)   bands (ev):

    -0.1863   0.0198   3.3171   3.5267   6.6874   6.9107  10.0377  10.2707
    10.4299  10.6236

          k =-0.5000-0.3000 0.1000 (  1560 PWs)   bands (ev):

    -0.0973  -0.0735   3.4081   3.4325   6.7875   6.8135  10.1552  10.1830
    10.5036  10.5259

          k = 0.5000-0.3000-0.1000 (  1560 PWs)   bands (ev):

    -0.0973  -0.0735   3.4080   3.4324   6.7885   6.8145  10.1378  10.1664
    10.5162  10.5446

          k =-0.1000-0.5000 0.3000 (  1560 PWs)   bands (ev):

    -0.0924  -0.0809   3.4207   3.4305   6.7879   6.8018  10.1569  10.1699
    10.5132  10.5223

          k =-0.1000 0.5000-0.3000 (  1560 PWs)   bands (ev):

    -0.0924  -0.0809   3.4205   3.4304   6.7880   6.8019  10.1633  10.1733
    10.5062  10.5199

          k = 0.3000-0.5000 0.1000 (  1560 PWs)   bands (ev):

    -0.0910  -0.0800   3.4144   3.4264   6.7954   6.8063  10.1528  10.1746
    10.5135  10.5255

          k = 0.3000 0.5000-0.1000 (  1560 PWs)   bands (ev):

    -0.0910  -0.0800   3.4146   3.4265   6.7953   6.8061  10.1447  10.1717
    10.5151  10.5354

          k =-0.5000 0.1000 0.3000 (  1560 PWs)   bands (ev):

    -0.0983  -0.0745   3.4127   3.4372   6.7831   6.8090  10.1347  10.1629
    10.5188  10.5432

          k = 0.5000-0.1000 0.3000 (  1560 PWs)   bands (ev):

    -0.0984  -0.0746   3.4128   3.4373   6.7821   6.8080  10.1485  10.1779
    10.5078  10.5300

          k =-0.5000 0.1000 0.5000 (  1548 PWs)   bands (ev):

     1.2118   1.2411   1.4198   1.4527   8.0189   8.0541   8.2492   8.2883
    11.7446  11.7696

          k =-0.5000 0.5000 0.1000 (  1548 PWs)   bands (ev):

     1.2746   1.3017   1.3545   1.3874   8.0835   8.1198   8.1875   8.2296
    11.8234  11.8379

          k =-0.3000-0.3000 0.3000 (  1556 PWs)   bands (ev):

    -0.7988   2.6659   2.7300   2.7838   6.1264   6.1836   6.2532   9.5767
    13.0298  13.0994

          k =-0.3000 0.3000-0.3000 (  1556 PWs)   bands (ev):

    -0.7989   2.6820   2.7279   2.7692   6.1403   6.1889   6.2341   9.5774
    13.0479  13.0991

          k = 0.3000-0.3000-0.3000 (  1556 PWs)   bands (ev):

    -0.7989   2.6749   2.7265   2.7785   6.1318   6.1876   6.2431   9.5745
    13.0406  13.0982

          k =-0.3000 0.3000 0.5000 (  1546 PWs)   bands (ev):

     0.5224   0.7289   3.9403   3.9722   4.2750   4.3059   7.4410   7.6610
    14.1576  14.1843

          k =-0.5000-0.3000 0.3000 (  1546 PWs)   bands (ev):

     0.6106   0.6344   3.9897   3.9941   4.2510   4.2577   7.5421   7.5680
    14.1862  14.1905

          k = 0.5000-0.3000-0.3000 (  1546 PWs)   bands (ev):

     0.6106   0.6344   3.9836   3.9917   4.2549   4.2638   7.5406   7.5664
    14.1865  14.1894

          k =-0.3000-0.5000 0.3000 (  1546 PWs)   bands (ev):

     0.6165   0.6280   3.9908   3.9997   4.2471   4.2556   7.5490   7.5601
    14.1825  14.1984

          k =-0.3000 0.5000-0.3000 (  1546 PWs)   bands (ev):

     0.6166   0.6281   3.9879   3.9973   4.2499   4.2580   7.5493   7.5604
    14.1787  14.1950

          k =-0.5000 0.3000 0.5000 (  1564 PWs)   bands (ev):

     1.9133   1.9426   2.1217   2.1545   5.3852   5.4157   5.6001   5.6343
    15.5302  15.5605

          k =-0.5000 0.5000 0.3000 (  1564 PWs)   bands (ev):

     1.9755   2.0024   2.0549   2.0877   5.4547   5.4831   5.5375   5.5719
    15.6025  15.6262

     the Fermi energy is     8.0642 ev

!    total energy              =    -157.99834144 Ry
     Harris-Foulkes estimate   =    -157.99834201 Ry
     estimated scf accuracy    <       0.00000079 Ry

     total all-electron energy =     -1942.569469 Ry

     The total energy is the sum of the following terms:

     one-electron contribution =      12.67955154 Ry
     hartree contribution      =       0.02784386 Ry
     xc contribution           =     -10.36952782 Ry
     ewald contribution        =     -21.62484579 Ry
     one-center paw contrib.   =    -138.70986881 Ry
     smearing contrib. (-TS)   =      -0.00149442 Ry

     convergence has been achieved in   7 iterations

     Forces acting on atoms (Ry/au):

     atom    1 type  1   force =     0.00093601    0.00005247    0.00693004
     atom    2 type  2   force =    -0.00294877    0.00539606    0.00690119
     atom    3 type  3   force =     0.00133537   -0.00059947   -0.00831630
     atom    4 type  4   force =     0.00067739   -0.00484906   -0.00551493

     Total force =     0.016126     Total SCF correction =     0.000564


     entering subroutine stress ...

          total   stress  (Ry/bohr**3)                   (kbar)     P=    2.52
   0.00001554  -0.00000299  -0.00000453          2.29     -0.44     -0.67
  -0.00000299   0.00003078   0.00001119         -0.44      4.53      1.65
  -0.00000453   0.00001119   0.00000514         -0.67      1.65      0.76


     Writing output data file template.save

     init_run     :      1.21s CPU      1.23s WALL (       1 calls)
     electrons    :     23.09s CPU     23.50s WALL (       1 calls)
     forces       :      0.16s CPU      0.16s WALL (       1 calls)
     stress       :      0.49s CPU      0.49s WALL (       1 calls)

     Called by init_run:
     wfcinit      :      0.72s CPU      0.73s WALL (       1 calls)
     potinit      :      0.10s CPU      0.11s WALL (       1 calls)

     Called by electrons:
     c_bands      :     17.95s CPU     18.29s WALL (       8 calls)
     sum_band     :      3.78s CPU      3.83s WALL (       8 calls)
     v_of_rho     :      0.16s CPU      0.17s WALL (       8 calls)
     newd         :      0.18s CPU      0.19s WALL (       8 calls)
     PAW_pot      :      0.97s CPU      0.98s WALL (       8 calls)
     mix_rho      :      0.11s CPU      0.11s WALL (       8 calls)

     Called by c_bands:
     init_us_2    :      0.41s CPU      0.44s WALL (    1197 calls)
     cegterg      :     17.44s CPU     17.76s WALL (     504 calls)

     Called by sum_band:
     sum_band:bec :      0.02s CPU      0.01s WALL (     504 calls)
     addusdens    :      0.26s CPU      0.25s WALL (       8 calls)

     Called by *egterg:
     h_psi        :     15.85s CPU     16.19s WALL (    1950 calls)
     s_psi        :      0.34s CPU      0.31s WALL (    1950 calls)
     g_psi        :      0.06s CPU      0.04s WALL (    1383 calls)
     cdiaghg      :      0.62s CPU      0.62s WALL (    1824 calls)

     Called by h_psi:
     h_psi:pot    :     15.83s CPU     16.15s WALL (    1950 calls)
     h_psi:calbec :      0.34s CPU      0.43s WALL (    1950 calls)
     vloc_psi     :     15.17s CPU     15.37s WALL (    1950 calls)
     add_vuspsi   :      0.30s CPU      0.34s WALL (    1950 calls)

     General routines
     calbec       :      0.52s CPU      0.65s WALL (    2769 calls)
     fft          :      0.18s CPU      0.17s WALL (     153 calls)
     ffts         :      0.08s CPU      0.08s WALL (      96 calls)
     fftw         :     17.58s CPU     17.66s WALL (   33746 calls)
     interpolate  :      0.03s CPU      0.03s WALL (      16 calls)
     davcio       :      0.00s CPU      0.00s WALL (      63 calls)

     Parallel routines
     fft_scatter  :      3.53s CPU      3.52s WALL (   33995 calls)

     PWSCF        :    26.07s CPU        26.62s WALL


   This run was terminated on:  15:56:23   9Jun2017            

=------------------------------------------------------------------------------=
   JOB DONE.
=------------------------------------------------------------------------------=
